TITLE = "Polar 16, Datapoint 133"
VARIABLES = y_mic, x_traverse, z, BVISPL6to40, LOWSPL1to5, OASPL1to244
ZONE T="Zone1" I = 17, J = 13, F=POINT
-2.69	-4.00	2.215	87.33	99.72	100.10
-2.69	-3.50	2.215	88.73	97.56	98.32
-2.69	-3.00	2.215	89.39	97.13	98.15
-2.69	-2.50	2.215	90.11	97.97	99.23
-2.69	-2.00	2.215	92.65	98.72	100.25
-2.69	-1.50	2.215	93.67	99.45	100.90
-2.69	-1.00	2.215	96.40	100.87	102.74
-2.69	-0.50	2.215	98.04	103.10	104.99
-2.69	0.00	2.215	101.49	105.28	107.44
-2.69	0.50	2.215	104.68	106.98	109.55
-2.69	1.00	2.215	106.31	107.42	110.33
-2.69	1.50	2.215	107.57	106.94	110.53
-2.69	2.00	2.215	108.15	105.99	110.36
-2.69	2.50	2.215	106.93	104.48	108.94
-2.69	3.00	2.215	106.43	102.39	107.92
-2.69	3.50	2.215	105.13	99.78	106.29
-2.69	4.00	2.215	103.50	97.41	104.53
-2.24	-4.00	2.215	87.33	100.32	100.74
-2.24	-3.50	2.215	89.12	98.44	99.20
-2.24	-3.00	2.215	87.99	97.74	98.51
-2.24	-2.50	2.215	89.61	98.56	99.58
-2.24	-2.00	2.215	90.71	99.87	101.00
-2.24	-1.50	2.215	94.20	100.50	102.05
-2.24	-1.00	2.215	96.33	100.27	102.46
-2.24	-0.50	2.215	99.44	102.67	105.11
-2.24	0.00	2.215	103.12	105.52	108.11
-2.24	0.50	2.215	105.78	107.33	110.23
-2.24	1.00	2.215	107.75	107.57	111.10
-2.24	1.50	2.215	109.37	106.69	111.47
-2.24	2.00	2.215	109.48	105.44	111.02
-2.24	2.50	2.215	108.77	103.90	110.02
-2.24	3.00	2.215	107.52	101.73	108.58
-2.24	3.50	2.215	106.06	98.73	106.87
-2.24	4.00	2.215	104.34	95.59	105.03
-1.80	-4.00	2.215	87.94	101.12	101.48
-1.80	-3.50	2.215	90.09	99.55	100.32
-1.80	-3.00	2.215	88.62	98.27	99.05
-1.80	-2.50	2.215	90.69	99.30	100.28
-1.80	-2.00	2.215	92.75	101.03	101.94
-1.80	-1.50	2.215	94.25	101.56	102.72
-1.80	-1.00	2.215	96.81	100.01	102.68
-1.80	-0.50	2.215	100.84	101.10	104.98
-1.80	0.00	2.215	104.24	104.52	108.22
-1.80	0.50	2.215	106.64	106.41	110.29
-1.80	1.00	2.215	108.81	106.56	111.37
-1.80	1.50	2.215	110.61	105.66	112.00
-1.80	2.00	2.215	110.86	104.75	111.84
-1.80	2.50	2.215	110.11	103.62	111.03
-1.80	3.00	2.215	108.26	101.43	109.17
-1.80	3.50	2.215	106.51	97.89	107.22
-1.80	4.00	2.215	104.65	94.05	105.18
-1.34	-4.00	2.215	89.63	102.12	102.46
-1.34	-3.50	2.215	89.95	100.54	101.06
-1.34	-3.00	2.215	89.98	99.03	99.80
-1.34	-2.50	2.215	89.14	100.12	100.93
-1.34	-2.00	2.215	93.27	101.87	102.73
-1.34	-1.50	2.215	96.08	102.48	103.58
-1.34	-1.00	2.215	97.98	100.85	103.19
-1.34	-0.50	2.215	101.69	99.55	104.62
-1.34	0.00	2.215	104.30	102.39	107.73
-1.34	0.50	2.215	107.13	104.52	110.01
-1.34	1.00	2.215	109.59	105.26	111.61
-1.34	1.50	2.215	111.22	105.41	112.43
-1.34	2.00	2.215	111.28	105.32	112.30
-1.34	2.50	2.215	110.12	104.48	111.23
-1.34	3.00	2.215	108.31	102.36	109.41
-1.34	3.50	2.215	106.33	98.97	107.22
-1.34	4.00	2.215	104.62	94.87	105.19
-0.89	-4.00	2.215	90.63	103.02	103.34
-0.89	-3.50	2.215	91.19	101.71	102.16
-0.89	-3.00	2.215	92.31	100.38	101.22
-0.89	-2.50	2.215	91.18	101.08	101.81
-0.89	-2.00	2.215	92.49	102.68	103.29
-0.89	-1.50	2.215	94.73	103.29	104.08
-0.89	-1.00	2.215	98.09	102.15	103.88
-0.89	-0.50	2.215	101.41	99.88	104.08
-0.89	0.00	2.215	104.06	100.90	106.37
-0.89	0.50	2.215	106.66	103.48	109.07
-0.89	1.00	2.215	109.62	105.73	111.45
-0.89	1.50	2.215	111.13	107.13	112.72
-0.89	2.00	2.215	111.55	107.41	113.00
-0.89	2.50	2.215	111.00	106.47	112.33
-0.89	3.00	2.215	108.92	104.40	110.33
-0.89	3.50	2.215	106.94	102.40	108.35
-0.89	4.00	2.215	104.47	97.40	105.42
-0.46	-4.00	2.215	92.04	104.25	104.58
-0.46	-3.50	2.215	93.18	103.18	103.70
-0.46	-3.00	2.215	93.49	102.23	103.02
-0.46	-2.50	2.215	94.35	102.43	103.34
-0.46	-2.00	2.215	95.38	103.76	104.57
-0.46	-1.50	2.215	96.46	104.50	105.32
-0.46	-1.00	2.215	97.52	103.81	104.91
-0.46	-0.50	2.215	100.74	101.01	104.84
-0.46	0.00	2.215	103.51	98.63	106.29
-0.46	0.50	2.215	106.26	102.29	108.72
-0.46	1.00	2.215	108.67	106.35	111.00
-0.46	1.50	2.215	110.66	108.36	112.71
-0.46	2.00	2.215	111.44	108.85	113.59
-0.46	2.50	2.215	111.15	108.24	113.08
-0.46	3.00	2.215	109.10	105.69	110.96
-0.46	3.50	2.215	107.16	106.61	110.63
-0.46	4.00	2.215	102.98	100.61	105.70
0.01	-4.00	2.215	93.15	103.94	104.37
0.01	-3.50	2.215	93.88	103.00	103.62
0.01	-3.00	2.215	95.17	102.55	103.53
0.01	-2.50	2.215	95.18	102.76	103.74
0.01	-2.00	2.215	97.01	103.79	104.84
0.01	-1.50	2.215	97.60	104.45	105.51
0.01	-1.00	2.215	99.91	104.10	105.69
0.01	-0.50	2.215	102.60	101.90	105.38
0.01	0.00	2.215	105.03	99.38	106.51
0.01	0.50	2.215	108.03	102.32	109.45
0.01	1.00	2.215	108.81	106.43	111.17
0.01	1.50	2.215	109.16	108.62	112.13
0.01	2.00	2.215	109.83	108.50	112.45
0.01	2.50	2.215	109.63	107.79	112.56
0.01	3.00	2.215	108.56	107.00	111.18
0.01	3.50	2.215	106.04	106.32	111.66
0.01	4.00	2.215	100.88	102.51	106.42
0.46	-4.00	2.215	94.00	103.99	104.47
0.46	-3.50	2.215	93.90	103.40	103.95
0.46	-3.00	2.215	95.94	103.37	104.22
0.46	-2.50	2.215	97.27	103.87	104.84
0.46	-2.00	2.215	99.53	104.82	106.05
0.46	-1.50	2.215	102.49	105.36	107.27
0.46	-1.00	2.215	105.30	105.05	108.28
0.46	-0.50	2.215	107.04	103.82	108.87
0.46	0.00	2.215	107.96	102.84	109.29
0.46	0.50	2.215	106.08	104.83	108.74
0.46	1.00	2.215	105.30	107.51	109.66
0.46	1.50	2.215	103.46	109.24	110.38
0.46	2.00	2.215	104.47	109.72	111.02
0.46	2.50	2.215	105.15	109.03	111.23
0.46	3.00	2.215	105.33	107.80	110.06
0.46	3.50	2.215	102.84	106.87	109.07
0.46	4.00	2.215	99.65	104.02	108.51
0.90	-4.00	2.215	95.38	103.23	103.98
0.90	-3.50	2.215	95.91	103.05	103.92
0.90	-3.00	2.215	97.60	103.28	104.45
0.90	-2.50	2.215	100.36	103.99	105.70
0.90	-2.00	2.215	102.73	104.89	107.07
0.90	-1.50	2.215	105.50	105.34	108.52
0.90	-1.00	2.215	108.03	104.95	109.85
0.90	-0.50	2.215	109.20	104.02	110.45
0.90	0.00	2.215	109.93	103.18	110.94
0.90	0.50	2.215	108.88	104.61	110.65
0.90	1.00	2.215	109.64	106.75	111.77
0.90	1.50	2.215	109.17	108.36	111.99
0.90	2.00	2.215	109.07	109.02	112.13
0.90	2.50	2.215	108.02	108.50	111.34
0.90	3.00	2.215	106.44	107.37	110.02
0.90	3.50	2.215	102.50	105.81	107.72
0.90	4.00	2.215	100.77	102.05	106.46
1.36	-4.00	2.215	96.66	102.88	103.91
1.36	-3.50	2.215	98.76	103.03	104.50
1.36	-3.00	2.215	100.44	103.35	105.24
1.36	-2.50	2.215	103.11	103.98	106.68
1.36	-2.00	2.215	106.22	104.67	108.60
1.36	-1.50	2.215	108.51	104.94	110.16
1.36	-1.00	2.215	110.82	104.37	111.77
1.36	-0.50	2.215	111.47	103.27	112.15
1.36	0.00	2.215	111.50	101.93	112.02
1.36	0.50	2.215	112.50	102.72	113.02
1.36	1.00	2.215	111.55	104.86	112.53
1.36	1.50	2.215	109.81	106.59	111.73
1.36	2.00	2.215	109.35	107.68	111.73
1.36	2.50	2.215	107.87	107.54	110.76
1.36	3.00	2.215	105.60	106.53	109.15
1.36	3.50	2.215	102.60	104.68	106.80
1.36	4.00	2.215	99.44	101.78	103.90
1.81	-4.00	2.215	98.45	102.43	103.96
1.81	-3.50	2.215	100.54	102.50	104.71
1.81	-3.00	2.215	103.18	102.92	106.14
1.81	-2.50	2.215	105.83	103.35	107.84
1.81	-2.00	2.215	108.41	103.80	109.76
1.81	-1.50	2.215	109.71	103.90	110.78
1.81	-1.00	2.215	111.35	103.20	112.03
1.81	-0.50	2.215	112.04	102.18	112.54
1.81	0.00	2.215	112.93	100.57	113.25
1.81	0.50	2.215	113.47	100.97	113.76
1.81	1.00	2.215	111.28	103.02	111.93
1.81	1.50	2.215	109.71	104.57	110.98
1.81	2.00	2.215	108.61	105.75	110.57
1.81	2.50	2.215	106.77	105.82	109.41
1.81	3.00	2.215	103.91	105.03	107.55
1.81	3.50	2.215	101.14	103.64	105.63
1.81	4.00	2.215	98.35	101.25	103.07
2.27	-4.00	2.215	100.02	101.88	104.14
2.27	-3.50	2.215	101.86	101.71	104.90
2.27	-3.00	2.215	103.99	102.59	106.47
2.27	-2.50	2.215	105.35	102.71	107.35
2.27	-2.00	2.215	107.47	102.69	108.83
2.27	-1.50	2.215	109.03	102.43	110.00
2.27	-1.00	2.215	110.73	101.30	111.30
2.27	-0.50	2.215	112.55	100.73	112.90
2.27	0.00	2.215	112.84	100.07	113.13
2.27	0.50	2.215	111.15	100.83	111.61
2.27	1.00	2.215	109.69	102.49	110.49
2.27	1.50	2.215	107.86	103.60	109.32
2.27	2.00	2.215	106.56	104.35	108.73
2.27	2.50	2.215	104.53	104.37	107.60
2.27	3.00	2.215	102.24	103.51	105.98
2.27	3.50	2.215	100.17	102.16	104.35
2.27	4.00	2.215	99.14	100.29	102.82
2.70	-4.00	2.215	102.68	101.22	105.13
2.70	-3.50	2.215	104.18	101.22	106.08
2.70	-3.00	2.215	105.52	102.56	107.43
2.70	-2.50	2.215	106.29	102.28	107.87
2.70	-2.00	2.215	107.46	101.40	108.56
2.70	-1.50	2.215	108.76	100.78	109.53
2.70	-1.00	2.215	111.02	99.30	111.39
2.70	-0.50	2.215	112.39	99.60	112.66
2.70	0.00	2.215	111.58	100.15	111.94
2.70	0.50	2.215	109.66	101.42	110.34
2.70	1.00	2.215	108.26	102.66	109.36
2.70	1.50	2.215	106.80	103.43	108.51
2.70	2.00	2.215	105.23	103.98	107.77
2.70	2.50	2.215	104.13	103.87	107.19
2.70	3.00	2.215	102.27	102.97	105.74
2.70	3.50	2.215	99.74	101.36	103.70
2.70	4.00	2.215	99.40	99.52	102.57
