TITLE="CmM2 at 87% radius for 1 revolution"
VARIABLES="CmM2"
ZONE I=  2048, J=   1, K=   1, F=BLOCK
 -0.004229
 -0.004247
 -0.004246
 -0.004238
 -0.004234
 -0.004229
 -0.004248
 -0.004261
 -0.004275
 -0.004273
 -0.004263
 -0.004283
 -0.004297
 -0.004293
 -0.004285
 -0.004285
 -0.004285
 -0.004288
 -0.004315
 -0.004306
 -0.004313
 -0.004351
 -0.004360
 -0.004370
 -0.004395
 -0.004431
 -0.004463
 -0.004493
 -0.004511
 -0.004530
 -0.004544
 -0.004579
 -0.004619
 -0.004636
 -0.004675
 -0.004709
 -0.004726
 -0.004764
 -0.004792
 -0.004808
 -0.004823
 -0.004832
 -0.004851
 -0.004870
 -0.004888
 -0.004886
 -0.004896
 -0.004913
 -0.004925
 -0.004938
 -0.004950
 -0.004967
 -0.004982
 -0.004982
 -0.005000
 -0.005019
 -0.005014
 -0.005031
 -0.005037
 -0.005047
 -0.005039
 -0.005021
 -0.005048
 -0.005047
 -0.005058
 -0.005083
 -0.005058
 -0.005054
 -0.005093
 -0.005098
 -0.005094
 -0.005132
 -0.005149
 -0.005162
 -0.005189
 -0.005214
 -0.005230
 -0.005249
 -0.005281
 -0.005290
 -0.005308
 -0.005348
 -0.005381
 -0.005404
 -0.005418
 -0.005427
 -0.005429
 -0.005463
 -0.005506
 -0.005513
 -0.005547
 -0.005581
 -0.005611
 -0.005601
 -0.005638
 -0.005689
 -0.005682
 -0.005731
 -0.005768
 -0.005791
 -0.005822
 -0.005816
 -0.005846
 -0.005872
 -0.005887
 -0.005908
 -0.005910
 -0.005922
 -0.005929
 -0.005930
 -0.005911
 -0.005917
 -0.005907
 -0.005905
 -0.005961
 -0.005994
 -0.006036
 -0.006108
 -0.006153
 -0.006209
 -0.006276
 -0.006329
 -0.006365
 -0.006407
 -0.006431
 -0.006462
 -0.006496
 -0.006488
 -0.006495
 -0.006495
 -0.006486
 -0.006479
 -0.006487
 -0.006489
 -0.006463
 -0.006450
 -0.006458
 -0.006482
 -0.006501
 -0.006529
 -0.006545
 -0.006558
 -0.006554
 -0.006549
 -0.006541
 -0.006549
 -0.006577
 -0.006566
 -0.006553
 -0.006569
 -0.006628
 -0.006650
 -0.006668
 -0.006703
 -0.006731
 -0.006773
 -0.006792
 -0.006813
 -0.006840
 -0.006846
 -0.006833
 -0.006821
 -0.006828
 -0.006822
 -0.006816
 -0.006816
 -0.006790
 -0.006771
 -0.006758
 -0.006752
 -0.006774
 -0.006788
 -0.006814
 -0.006863
 -0.006918
 -0.006957
 -0.007012
 -0.007084
 -0.007127
 -0.007182
 -0.007207
 -0.007214
 -0.007228
 -0.007223
 -0.007208
 -0.007199
 -0.007187
 -0.007178
 -0.007161
 -0.007184
 -0.007183
 -0.007174
 -0.007204
 -0.007174
 -0.007172
 -0.007171
 -0.007145
 -0.007128
 -0.007075
 -0.006996
 -0.006937
 -0.006907
 -0.006821
 -0.006762
 -0.006755
 -0.006718
 -0.006710
 -0.006685
 -0.006666
 -0.006660
 -0.006668
 -0.006670
 -0.006660
 -0.006663
 -0.006639
 -0.006645
 -0.006635
 -0.006626
 -0.006653
 -0.006659
 -0.006681
 -0.006737
 -0.006794
 -0.006840
 -0.006917
 -0.007015
 -0.007073
 -0.007170
 -0.007280
 -0.007341
 -0.007405
 -0.007479
 -0.007532
 -0.007556
 -0.007623
 -0.007654
 -0.007654
 -0.007685
 -0.007702
 -0.007710
 -0.007722
 -0.007726
 -0.007710
 -0.007699
 -0.007690
 -0.007669
 -0.007636
 -0.007584
 -0.007543
 -0.007519
 -0.007479
 -0.007434
 -0.007403
 -0.007364
 -0.007341
 -0.007308
 -0.007244
 -0.007225
 -0.007206
 -0.007160
 -0.007146
 -0.007102
 -0.007060
 -0.007039
 -0.007011
 -0.007012
 -0.007026
 -0.007076
 -0.007121
 -0.007164
 -0.007184
 -0.007193
 -0.007226
 -0.007252
 -0.007253
 -0.007254
 -0.007245
 -0.007242
 -0.007274
 -0.007350
 -0.007440
 -0.007537
 -0.007634
 -0.007696
 -0.007751
 -0.007764
 -0.007758
 -0.007741
 -0.007696
 -0.007659
 -0.007585
 -0.007511
 -0.007448
 -0.007404
 -0.007336
 -0.007260
 -0.007182
 -0.007087
 -0.007051
 -0.006999
 -0.006926
 -0.006876
 -0.006829
 -0.006785
 -0.006749
 -0.006719
 -0.006659
 -0.006589
 -0.006506
 -0.006417
 -0.006355
 -0.006280
 -0.006237
 -0.006196
 -0.006178
 -0.006183
 -0.006168
 -0.006169
 -0.006214
 -0.006302
 -0.006368
 -0.006447
 -0.006554
 -0.006673
 -0.006776
 -0.006857
 -0.006948
 -0.007029
 -0.007090
 -0.007186
 -0.007301
 -0.007372
 -0.007455
 -0.007573
 -0.007617
 -0.007632
 -0.007651
 -0.007627
 -0.007577
 -0.007514
 -0.007485
 -0.007385
 -0.007294
 -0.007223
 -0.007126
 -0.007052
 -0.006951
 -0.006889
 -0.006819
 -0.006763
 -0.006713
 -0.006649
 -0.006595
 -0.006515
 -0.006427
 -0.006355
 -0.006299
 -0.006172
 -0.006033
 -0.005973
 -0.005916
 -0.005803
 -0.005712
 -0.005662
 -0.005571
 -0.005485
 -0.005440
 -0.005414
 -0.005392
 -0.005405
 -0.005445
 -0.005514
 -0.005590
 -0.005680
 -0.005799
 -0.005898
 -0.006040
 -0.006147
 -0.006269
 -0.006413
 -0.006521
 -0.006629
 -0.006704
 -0.006789
 -0.006824
 -0.006862
 -0.006888
 -0.006830
 -0.006808
 -0.006738
 -0.006687
 -0.006631
 -0.006534
 -0.006425
 -0.006311
 -0.006230
 -0.006158
 -0.006135
 -0.006086
 -0.006071
 -0.006051
 -0.006034
 -0.006054
 -0.006076
 -0.006093
 -0.006092
 -0.006093
 -0.006110
 -0.006118
 -0.006117
 -0.006136
 -0.006144
 -0.006138
 -0.006110
 -0.006121
 -0.006126
 -0.006083
 -0.006084
 -0.006094
 -0.006071
 -0.006071
 -0.006075
 -0.006065
 -0.006076
 -0.006072
 -0.006064
 -0.006054
 -0.006054
 -0.006076
 -0.006094
 -0.006101
 -0.006104
 -0.006116
 -0.006133
 -0.006106
 -0.006093
 -0.006104
 -0.006085
 -0.006100
 -0.006094
 -0.006067
 -0.006046
 -0.005993
 -0.005980
 -0.005980
 -0.005962
 -0.005958
 -0.005906
 -0.005892
 -0.005861
 -0.005789
 -0.005766
 -0.005710
 -0.005687
 -0.005635
 -0.005580
 -0.005536
 -0.005453
 -0.005423
 -0.005351
 -0.005268
 -0.005210
 -0.005181
 -0.005110
 -0.005035
 -0.005014
 -0.004946
 -0.004908
 -0.004888
 -0.004835
 -0.004790
 -0.004756
 -0.004712
 -0.004668
 -0.004632
 -0.004574
 -0.004557
 -0.004549
 -0.004510
 -0.004489
 -0.004480
 -0.004463
 -0.004441
 -0.004429
 -0.004394
 -0.004379
 -0.004367
 -0.004372
 -0.004374
 -0.004344
 -0.004335
 -0.004324
 -0.004327
 -0.004314
 -0.004292
 -0.004286
 -0.004283
 -0.004226
 -0.004206
 -0.004206
 -0.004169
 -0.004168
 -0.004127
 -0.004114
 -0.004082
 -0.004048
 -0.004007
 -0.003962
 -0.003953
 -0.003918
 -0.003897
 -0.003841
 -0.003815
 -0.003762
 -0.003723
 -0.003697
 -0.003649
 -0.003615
 -0.003573
 -0.003581
 -0.003560
 -0.003524
 -0.003484
 -0.003460
 -0.003458
 -0.003421
 -0.003405
 -0.003396
 -0.003344
 -0.003312
 -0.003326
 -0.003304
 -0.003276
 -0.003267
 -0.003248
 -0.003234
 -0.003210
 -0.003203
 -0.003185
 -0.003168
 -0.003148
 -0.003112
 -0.003105
 -0.003088
 -0.003064
 -0.003023
 -0.003012
 -0.002990
 -0.002980
 -0.002972
 -0.002937
 -0.002922
 -0.002889
 -0.002879
 -0.002853
 -0.002835
 -0.002812
 -0.002807
 -0.002793
 -0.002787
 -0.002785
 -0.002778
 -0.002802
 -0.002777
 -0.002774
 -0.002752
 -0.002735
 -0.002755
 -0.002759
 -0.002741
 -0.002694
 -0.002726
 -0.002731
 -0.002679
 -0.002700
 -0.002698
 -0.002678
 -0.002691
 -0.002701
 -0.002710
 -0.002713
 -0.002711
 -0.002710
 -0.002720
 -0.002724
 -0.002720
 -0.002761
 -0.002764
 -0.002742
 -0.002754
 -0.002733
 -0.002755
 -0.002752
 -0.002717
 -0.002723
 -0.002703
 -0.002712
 -0.002723
 -0.002706
 -0.002702
 -0.002700
 -0.002718
 -0.002711
 -0.002701
 -0.002727
 -0.002747
 -0.002768
 -0.002796
 -0.002816
 -0.002857
 -0.002894
 -0.002870
 -0.002883
 -0.002922
 -0.002946
 -0.002964
 -0.002969
 -0.003008
 -0.003049
 -0.003067
 -0.003071
 -0.003077
 -0.003102
 -0.003121
 -0.003130
 -0.003147
 -0.003139
 -0.003131
 -0.003165
 -0.003201
 -0.003204
 -0.003215
 -0.003208
 -0.003197
 -0.003223
 -0.003237
 -0.003251
 -0.003244
 -0.003246
 -0.003275
 -0.003281
 -0.003286
 -0.003291
 -0.003304
 -0.003312
 -0.003303
 -0.003326
 -0.003343
 -0.003358
 -0.003363
 -0.003346
 -0.003357
 -0.003349
 -0.003346
 -0.003370
 -0.003375
 -0.003381
 -0.003388
 -0.003380
 -0.003399
 -0.003410
 -0.003418
 -0.003419
 -0.003414
 -0.003435
 -0.003450
 -0.003488
 -0.003503
 -0.003514
 -0.003516
 -0.003537
 -0.003584
 -0.003597
 -0.003631
 -0.003647
 -0.003700
 -0.003728
 -0.003742
 -0.003805
 -0.003833
 -0.003875
 -0.003911
 -0.003951
 -0.003988
 -0.003993
 -0.004002
 -0.004042
 -0.004061
 -0.004071
 -0.004092
 -0.004107
 -0.004116
 -0.004133
 -0.004148
 -0.004148
 -0.004179
 -0.004203
 -0.004214
 -0.004244
 -0.004267
 -0.004304
 -0.004342
 -0.004357
 -0.004402
 -0.004439
 -0.004479
 -0.004524
 -0.004556
 -0.004594
 -0.004634
 -0.004679
 -0.004711
 -0.004764
 -0.004782
 -0.004794
 -0.004856
 -0.004896
 -0.004934
 -0.004972
 -0.005011
 -0.005045
 -0.005070
 -0.005138
 -0.005172
 -0.005208
 -0.005257
 -0.005265
 -0.005304
 -0.005312
 -0.005336
 -0.005382
 -0.005436
 -0.005455
 -0.005453
 -0.005490
 -0.005502
 -0.005526
 -0.005540
 -0.005571
 -0.005583
 -0.005584
 -0.005601
 -0.005598
 -0.005626
 -0.005626
 -0.005623
 -0.005640
 -0.005663
 -0.005693
 -0.005711
 -0.005726
 -0.005714
 -0.005773
 -0.005816
 -0.005767
 -0.005814
 -0.005849
 -0.005834
 -0.005870
 -0.005887
 -0.005933
 -0.005957
 -0.005942
 -0.005998
 -0.006031
 -0.006039
 -0.006039
 -0.006063
 -0.006120
 -0.006115
 -0.006136
 -0.006194
 -0.006200
 -0.006211
 -0.006250
 -0.006266
 -0.006262
 -0.006267
 -0.006305
 -0.006340
 -0.006355
 -0.006385
 -0.006392
 -0.006405
 -0.006432
 -0.006459
 -0.006458
 -0.006456
 -0.006484
 -0.006469
 -0.006501
 -0.006523
 -0.006506
 -0.006530
 -0.006546
 -0.006557
 -0.006577
 -0.006599
 -0.006579
 -0.006588
 -0.006598
 -0.006616
 -0.006621
 -0.006590
 -0.006627
 -0.006650
 -0.006650
 -0.006642
 -0.006645
 -0.006641
 -0.006649
 -0.006660
 -0.006661
 -0.006666
 -0.006655
 -0.006659
 -0.006669
 -0.006694
 -0.006680
 -0.006684
 -0.006707
 -0.006697
 -0.006707
 -0.006714
 -0.006712
 -0.006707
 -0.006732
 -0.006769
 -0.006744
 -0.006739
 -0.006769
 -0.006788
 -0.006806
 -0.006807
 -0.006791
 -0.006796
 -0.006829
 -0.006835
 -0.006844
 -0.006844
 -0.006836
 -0.006833
 -0.006840
 -0.006861
 -0.006866
 -0.006888
 -0.006885
 -0.006885
 -0.006886
 -0.006891
 -0.006898
 -0.006896
 -0.006903
 -0.006884
 -0.006892
 -0.006910
 -0.006879
 -0.006873
 -0.006899
 -0.006871
 -0.006873
 -0.006869
 -0.006867
 -0.006863
 -0.006849
 -0.006864
 -0.006852
 -0.006870
 -0.006838
 -0.006830
 -0.006849
 -0.006851
 -0.006857
 -0.006844
 -0.006876
 -0.006867
 -0.006873
 -0.006899
 -0.006886
 -0.006905
 -0.006923
 -0.006912
 -0.006905
 -0.006909
 -0.006934
 -0.006948
 -0.006962
 -0.006980
 -0.006962
 -0.006958
 -0.006960
 -0.006969
 -0.006969
 -0.006981
 -0.006999
 -0.006976
 -0.006976
 -0.007013
 -0.007005
 -0.006980
 -0.006986
 -0.006985
 -0.006982
 -0.006985
 -0.007004
 -0.007000
 -0.007003
 -0.006986
 -0.006983
 -0.006990
 -0.006985
 -0.006988
 -0.006957
 -0.006984
 -0.006978
 -0.006985
 -0.006985
 -0.007001
 -0.007015
 -0.006973
 -0.007002
 -0.006999
 -0.006992
 -0.007004
 -0.007014
 -0.007003
 -0.007008
 -0.007034
 -0.007020
 -0.007018
 -0.007022
 -0.007045
 -0.007041
 -0.007013
 -0.007034
 -0.007042
 -0.007015
 -0.007034
 -0.007045
 -0.007013
 -0.007017
 -0.007006
 -0.006987
 -0.006992
 -0.006972
 -0.006969
 -0.006991
 -0.006968
 -0.006952
 -0.006946
 -0.006938
 -0.006918
 -0.006891
 -0.006911
 -0.006876
 -0.006881
 -0.006921
 -0.006880
 -0.006854
 -0.006852
 -0.006861
 -0.006841
 -0.006846
 -0.006864
 -0.006840
 -0.006826
 -0.006849
 -0.006850
 -0.006837
 -0.006854
 -0.006843
 -0.006816
 -0.006846
 -0.006833
 -0.006809
 -0.006817
 -0.006803
 -0.006826
 -0.006804
 -0.006816
 -0.006809
 -0.006791
 -0.006804
 -0.006783
 -0.006806
 -0.006792
 -0.006780
 -0.006781
 -0.006801
 -0.006790
 -0.006757
 -0.006772
 -0.006755
 -0.006761
 -0.006779
 -0.006760
 -0.006735
 -0.006761
 -0.006754
 -0.006725
 -0.006734
 -0.006719
 -0.006735
 -0.006722
 -0.006724
 -0.006729
 -0.006707
 -0.006712
 -0.006681
 -0.006663
 -0.006667
 -0.006646
 -0.006631
 -0.006620
 -0.006617
 -0.006607
 -0.006575
 -0.006555
 -0.006537
 -0.006508
 -0.006534
 -0.006497
 -0.006445
 -0.006460
 -0.006414
 -0.006402
 -0.006365
 -0.006361
 -0.006336
 -0.006279
 -0.006278
 -0.006253
 -0.006234
 -0.006192
 -0.006174
 -0.006180
 -0.006153
 -0.006099
 -0.006107
 -0.006091
 -0.006083
 -0.006053
 -0.006008
 -0.006023
 -0.006004
 -0.005978
 -0.005956
 -0.005966
 -0.005980
 -0.005963
 -0.005969
 -0.006020
 -0.006016
 -0.006024
 -0.006037
 -0.006046
 -0.006071
 -0.006048
 -0.006065
 -0.006033
 -0.006000
 -0.006007
 -0.005957
 -0.005956
 -0.005939
 -0.005904
 -0.005899
 -0.005857
 -0.005864
 -0.005813
 -0.005780
 -0.005801
 -0.005765
 -0.005751
 -0.005714
 -0.005701
 -0.005667
 -0.005640
 -0.005618
 -0.005602
 -0.005596
 -0.005564
 -0.005560
 -0.005530
 -0.005527
 -0.005522
 -0.005509
 -0.005495
 -0.005508
 -0.005491
 -0.005490
 -0.005516
 -0.005473
 -0.005486
 -0.005490
 -0.005485
 -0.005478
 -0.005491
 -0.005478
 -0.005469
 -0.005488
 -0.005460
 -0.005476
 -0.005456
 -0.005484
 -0.005485
 -0.005465
 -0.005458
 -0.005423
 -0.005442
 -0.005416
 -0.005432
 -0.005396
 -0.005372
 -0.005396
 -0.005356
 -0.005351
 -0.005347
 -0.005339
 -0.005322
 -0.005305
 -0.005297
 -0.005264
 -0.005251
 -0.005235
 -0.005222
 -0.005255
 -0.005193
 -0.005172
 -0.005189
 -0.005140
 -0.005155
 -0.005140
 -0.005134
 -0.005120
 -0.005119
 -0.005122
 -0.005091
 -0.005087
 -0.005045
 -0.005033
 -0.005046
 -0.005028
 -0.005004
 -0.005006
 -0.004967
 -0.004945
 -0.004979
 -0.004947
 -0.004941
 -0.004933
 -0.004887
 -0.004887
 -0.004896
 -0.004882
 -0.004874
 -0.004877
 -0.004871
 -0.004864
 -0.004855
 -0.004846
 -0.004813
 -0.004814
 -0.004829
 -0.004795
 -0.004792
 -0.004803
 -0.004786
 -0.004749
 -0.004770
 -0.004743
 -0.004716
 -0.004724
 -0.004709
 -0.004712
 -0.004705
 -0.004680
 -0.004636
 -0.004637
 -0.004602
 -0.004621
 -0.004604
 -0.004572
 -0.004573
 -0.004514
 -0.004560
 -0.004516
 -0.004482
 -0.004488
 -0.004457
 -0.004476
 -0.004454
 -0.004437
 -0.004442
 -0.004403
 -0.004396
 -0.004411
 -0.004393
 -0.004400
 -0.004382
 -0.004369
 -0.004367
 -0.004368
 -0.004340
 -0.004328
 -0.004343
 -0.004295
 -0.004287
 -0.004310
 -0.004272
 -0.004269
 -0.004276
 -0.004249
 -0.004245
 -0.004213
 -0.004227
 -0.004227
 -0.004194
 -0.004184
 -0.004183
 -0.004182
 -0.004159
 -0.004178
 -0.004175
 -0.004161
 -0.004167
 -0.004176
 -0.004158
 -0.004162
 -0.004171
 -0.004119
 -0.004130
 -0.004154
 -0.004133
 -0.004103
 -0.004110
 -0.004094
 -0.004047
 -0.004044
 -0.004042
 -0.004023
 -0.004002
 -0.004005
 -0.003970
 -0.003954
 -0.003946
 -0.003924
 -0.003906
 -0.003882
 -0.003880
 -0.003864
 -0.003829
 -0.003849
 -0.003841
 -0.003804
 -0.003805
 -0.003790
 -0.003788
 -0.003761
 -0.003769
 -0.003777
 -0.003737
 -0.003736
 -0.003748
 -0.003710
 -0.003712
 -0.003736
 -0.003734
 -0.003726
 -0.003684
 -0.003714
 -0.003697
 -0.003683
 -0.003703
 -0.003683
 -0.003685
 -0.003673
 -0.003674
 -0.003654
 -0.003630
 -0.003651
 -0.003636
 -0.003618
 -0.003635
 -0.003611
 -0.003615
 -0.003618
 -0.003609
 -0.003610
 -0.003613
 -0.003621
 -0.003598
 -0.003612
 -0.003632
 -0.003605
 -0.003617
 -0.003646
 -0.003663
 -0.003644
 -0.003622
 -0.003644
 -0.003633
 -0.003636
 -0.003652
 -0.003654
 -0.003634
 -0.003641
 -0.003650
 -0.003628
 -0.003646
 -0.003656
 -0.003634
 -0.003651
 -0.003654
 -0.003641
 -0.003655
 -0.003660
 -0.003658
 -0.003652
 -0.003680
 -0.003668
 -0.003665
 -0.003678
 -0.003695
 -0.003718
 -0.003701
 -0.003713
 -0.003713
 -0.003721
 -0.003724
 -0.003711
 -0.003717
 -0.003726
 -0.003727
 -0.003733
 -0.003729
 -0.003725
 -0.003735
 -0.003720
 -0.003716
 -0.003712
 -0.003719
 -0.003730
 -0.003699
 -0.003692
 -0.003699
 -0.003694
 -0.003684
 -0.003691
 -0.003700
 -0.003683
 -0.003677
 -0.003672
 -0.003667
 -0.003669
 -0.003677
 -0.003667
 -0.003641
 -0.003637
 -0.003644
 -0.003643
 -0.003638
 -0.003627
 -0.003623
 -0.003607
 -0.003612
 -0.003625
 -0.003608
 -0.003604
 -0.003591
 -0.003617
 -0.003623
 -0.003616
 -0.003618
 -0.003610
 -0.003606
 -0.003601
 -0.003623
 -0.003616
 -0.003608
 -0.003596
 -0.003623
 -0.003637
 -0.003627
 -0.003627
 -0.003616
 -0.003627
 -0.003630
 -0.003625
 -0.003634
 -0.003648
 -0.003640
 -0.003643
 -0.003637
 -0.003640
 -0.003644
 -0.003665
 -0.003667
 -0.003646
 -0.003658
 -0.003650
 -0.003663
 -0.003670
 -0.003674
 -0.003679
 -0.003683
 -0.003680
 -0.003673
 -0.003694
 -0.003692
 -0.003689
 -0.003709
 -0.003719
 -0.003722
 -0.003733
 -0.003747
 -0.003754
 -0.003760
 -0.003774
 -0.003788
 -0.003801
 -0.003816
 -0.003817
 -0.003823
 -0.003867
 -0.003889
 -0.003890
 -0.003890
 -0.003911
 -0.003939
 -0.003949
 -0.003969
 -0.003991
 -0.004004
 -0.004016
 -0.004048
 -0.004081
 -0.004099
 -0.004098
 -0.004103
 -0.004122
 -0.004144
 -0.004153
 -0.004150
 -0.004160
 -0.004185
 -0.004187
 -0.004182
 -0.004219
 -0.004239
 -0.004242
 -0.004267
 -0.004271
 -0.004281
 -0.004306
 -0.004317
 -0.004336
 -0.004375
 -0.004419
 -0.004417
 -0.004423
 -0.004446
 -0.004463
 -0.004485
 -0.004494
 -0.004515
 -0.004543
 -0.004556
 -0.004578
 -0.004591
 -0.004593
 -0.004607
 -0.004618
 -0.004630
 -0.004636
 -0.004648
 -0.004662
 -0.004682
 -0.004680
 -0.004692
 -0.004705
 -0.004709
 -0.004739
 -0.004733
 -0.004739
 -0.004749
 -0.004768
 -0.004774
 -0.004779
 -0.004786
 -0.004789
 -0.004801
 -0.004791
 -0.004808
 -0.004817
 -0.004824
 -0.004845
 -0.004851
 -0.004856
 -0.004867
 -0.004866
 -0.004889
 -0.004911
 -0.004904
 -0.004912
 -0.004934
 -0.004936
 -0.004934
 -0.004954
 -0.004963
 -0.004964
 -0.004975
 -0.004968
 -0.004978
 -0.004992
 -0.004988
 -0.005009
 -0.005007
 -0.005014
 -0.005024
 -0.005044
 -0.005069
 -0.005061
 -0.005064
 -0.005080
 -0.005101
 -0.005087
 -0.005084
 -0.005107
 -0.005111
 -0.005108
 -0.005118
 -0.005122
 -0.005114
 -0.005107
 -0.005115
 -0.005132
 -0.005117
 -0.005112
 -0.005109
 -0.005094
 -0.005092
 -0.005090
 -0.005087
 -0.005092
 -0.005098
 -0.005087
 -0.005075
 -0.005068
 -0.005038
 -0.005032
 -0.005045
 -0.005020
 -0.005022
 -0.005004
 -0.004995
 -0.005000
 -0.004982
 -0.004991
 -0.005008
 -0.005015
 -0.005008
 -0.005014
 -0.005019
 -0.005026
 -0.005037
 -0.005046
 -0.005063
 -0.005074
 -0.005078
 -0.005084
 -0.005099
 -0.005134
 -0.005155
 -0.005163
 -0.005196
 -0.005223
 -0.005240
 -0.005267
 -0.005301
 -0.005320
 -0.005327
 -0.005347
 -0.005389
 -0.005389
 -0.005398
 -0.005427
 -0.005444
 -0.005492
 -0.005503
 -0.005528
 -0.005531
 -0.005532
 -0.005555
 -0.005568
 -0.005578
 -0.005589
 -0.005639
 -0.005651
 -0.005671
 -0.005676
 -0.005685
 -0.005716
 -0.005723
 -0.005745
 -0.005750
 -0.005760
 -0.005790
 -0.005807
 -0.005815
 -0.005820
 -0.005836
 -0.005839
 -0.005841
 -0.005857
 -0.005850
 -0.005849
 -0.005850
 -0.005841
 -0.005846
 -0.005858
 -0.005846
 -0.005872
 -0.005884
 -0.005860
 -0.005869
 -0.005862
 -0.005854
 -0.005855
 -0.005850
 -0.005843
 -0.005835
 -0.005831
 -0.005827
 -0.005794
 -0.005768
 -0.005757
 -0.005722
 -0.005689
 -0.005678
 -0.005649
 -0.005625
 -0.005604
 -0.005577
 -0.005556
 -0.005518
 -0.005481
 -0.005442
 -0.005389
 -0.005346
 -0.005304
 -0.005258
 -0.005207
 -0.005144
 -0.005094
 -0.005039
 -0.004970
 -0.004933
 -0.004876
 -0.004815
 -0.004778
 -0.004730
 -0.004728
 -0.004733
 -0.004703
 -0.004695
 -0.004674
 -0.004659
 -0.004666
 -0.004656
 -0.004652
 -0.004678
 -0.004701
 -0.004691
 -0.004714
 -0.004725
 -0.004723
 -0.004783
 -0.004813
 -0.004827
 -0.004884
 -0.004926
 -0.004967
 -0.004991
 -0.005007
 -0.005047
 -0.005067
 -0.005108
 -0.005153
 -0.005166
 -0.005202
 -0.005246
 -0.005269
 -0.005295
 -0.005328
 -0.005332
 -0.005348
 -0.005366
 -0.005348
 -0.005353
 -0.005336
 -0.005289
 -0.005239
 -0.005203
 -0.005156
 -0.005100
 -0.005067
 -0.005020
 -0.004989
 -0.004949
 -0.004908
 -0.004873
 -0.004823
 -0.004775
 -0.004685
 -0.004591
 -0.004505
 -0.004400
 -0.004271
 -0.004158
 -0.004037
 -0.003920
 -0.003840
 -0.003727
 -0.003618
 -0.003513
 -0.003425
 -0.003318
 -0.003222
 -0.003162
 -0.003080
 -0.003062
 -0.003072
 -0.003112
 -0.003149
 -0.003168
 -0.003196
 -0.003160
 -0.003160
 -0.003157
 -0.003160
 -0.003184
 -0.003199
 -0.003252
 -0.003320
 -0.003407
 -0.003493
 -0.003578
 -0.003672
 -0.003798
 -0.003925
 -0.004047
 -0.004131
 -0.004135
 -0.004138
 -0.004165
 -0.004168
 -0.004179
 -0.004247
 -0.004309
 -0.004363
 -0.004420
 -0.004497
 -0.004589
 -0.004651
 -0.004681
 -0.004713
 -0.004752
 -0.004747
 -0.004753
 -0.004748
 -0.004722
 -0.004712
 -0.004684
 -0.004657
 -0.004639
 -0.004601
 -0.004563
 -0.004555
 -0.004562
 -0.004545
 -0.004533
 -0.004535
 -0.004531
 -0.004515
 -0.004488
 -0.004458
 -0.004437
 -0.004401
 -0.004358
 -0.004336
 -0.004308
 -0.004276
 -0.004267
 -0.004250
 -0.004219
 -0.004201
 -0.004198
 -0.004197
 -0.004162
 -0.004173
 -0.004197
 -0.004198
 -0.004224
 -0.004229
 -0.004256
 -0.004268
 -0.004275
 -0.004279
 -0.004260
 -0.004206
 -0.004216
 -0.004201
 -0.004146
 -0.004140
 -0.004101
 -0.004085
 -0.004028
 -0.003996
 -0.003984
 -0.003948
 -0.003939
 -0.003938
 -0.003934
 -0.003926
 -0.003922
 -0.003912
 -0.003928
 -0.003943
 -0.003974
 -0.003988
 -0.003986
 -0.004013
 -0.004035
 -0.004069
 -0.004073
 -0.004099
 -0.004136
 -0.004143
 -0.004150
 -0.004168
 -0.004173
 -0.004169
 -0.004178
 -0.004184
 -0.004164
 -0.004144
 -0.004150
 -0.004145
 -0.004135
 -0.004110
 -0.004111
 -0.004101
 -0.004071
 -0.004058
 -0.004049
 -0.004032
 -0.004010
 -0.003998
 -0.004001
 -0.003986
 -0.003985
 -0.003977
 -0.003954
 -0.003957
 -0.003950
 -0.003947
 -0.003929
 -0.003935
 -0.003932
 -0.003915
 -0.003909
 -0.003900
 -0.003890
 -0.003873
 -0.003874
 -0.003860
 -0.003856
 -0.003846
 -0.003836
 -0.003844
 -0.003828
 -0.003816
 -0.003809
 -0.003817
 -0.003808
 -0.003782
 -0.003796
 -0.003782
 -0.003779
 -0.003773
 -0.003746
 -0.003759
 -0.003760
 -0.003735
 -0.003736
 -0.003742
 -0.003717
 -0.003712
 -0.003703
 -0.003723
 -0.003710
 -0.003696
 -0.003703
 -0.003701
 -0.003691
 -0.003690
 -0.003700
 -0.003683
 -0.003665
 -0.003675
 -0.003676
 -0.003688
 -0.003692
 -0.003659
 -0.003679
 -0.003675
 -0.003676
 -0.003686
 -0.003686
 -0.003682
 -0.003651
 -0.003658
 -0.003663
 -0.003655
 -0.003650
 -0.003641
 -0.003642
 -0.003643
 -0.003647
 -0.003638
 -0.003634
 -0.003626
 -0.003626
 -0.003640
 -0.003639
 -0.003637
 -0.003635
 -0.003615
 -0.003612
 -0.003619
 -0.003615
 -0.003622
 -0.003601
 -0.003607
 -0.003618
 -0.003611
 -0.003627
 -0.003626
 -0.003597
 -0.003624
 -0.003634
 -0.003632
 -0.003664
 -0.003648
 -0.003618
 -0.003617
 -0.003631
 -0.003606
 -0.003573
 -0.003580
 -0.003566
 -0.003544
 -0.003532
 -0.003512
 -0.003509
 -0.003507
 -0.003465
 -0.003439
 -0.003456
 -0.003447
 -0.003418
 -0.003396
 -0.003364
 -0.003360
 -0.003360
 -0.003327
 -0.003351
 -0.003345
 -0.003334
 -0.003343
 -0.003362
 -0.003397
 -0.003372
 -0.003410
 -0.003413
 -0.003434
 -0.003476
 -0.003498
 -0.003523
 -0.003520
 -0.003551
 -0.003594
 -0.003623
 -0.003675
 -0.003707
 -0.003726
 -0.003756
 -0.003770
 -0.003774
 -0.003799
 -0.003832
 -0.003819
 -0.003827
 -0.003856
 -0.003852
 -0.003837
 -0.003866
 -0.003883
 -0.003901
 -0.003940
 -0.003948
 -0.003978
 -0.003989
 -0.004002
 -0.004036
 -0.004066
 -0.004078
 -0.004094
 -0.004138
 -0.004156
 -0.004158
 -0.004179
 -0.004201
 -0.004193
 -0.004175
 -0.004202
 -0.004230
 -0.004225
 -0.004243
 -0.004246
 -0.004241
 -0.004266
 -0.004254
 -0.004248
 -0.004257
 -0.004225
 -0.004241
 -0.004237
 -0.004242
 -0.004225
 -0.004228
 -0.004255
 -0.004236
 -0.004244
 -0.004228
 -0.004234
 -0.004248
