TITLE="CmM2 at 87% radius for 1 revolution"
VARIABLES="CmM2"
ZONE I=  2048, J=   1, K=   1, F=BLOCK
 -0.005514
 -0.005458
 -0.005367
 -0.005284
 -0.005241
 -0.005155
 -0.005102
 -0.005032
 -0.004989
 -0.004920
 -0.004883
 -0.004827
 -0.004786
 -0.004766
 -0.004720
 -0.004675
 -0.004667
 -0.004646
 -0.004622
 -0.004648
 -0.004650
 -0.004649
 -0.004636
 -0.004611
 -0.004604
 -0.004586
 -0.004607
 -0.004619
 -0.004605
 -0.004612
 -0.004613
 -0.004611
 -0.004590
 -0.004592
 -0.004585
 -0.004581
 -0.004573
 -0.004573
 -0.004590
 -0.004568
 -0.004594
 -0.004589
 -0.004585
 -0.004606
 -0.004582
 -0.004573
 -0.004542
 -0.004569
 -0.004611
 -0.004547
 -0.004530
 -0.004558
 -0.004529
 -0.004524
 -0.004524
 -0.004532
 -0.004552
 -0.004523
 -0.004570
 -0.004555
 -0.004527
 -0.004570
 -0.004549
 -0.004528
 -0.004543
 -0.004557
 -0.004549
 -0.004556
 -0.004564
 -0.004588
 -0.004584
 -0.004574
 -0.004574
 -0.004569
 -0.004534
 -0.004555
 -0.004550
 -0.004522
 -0.004560
 -0.004530
 -0.004543
 -0.004571
 -0.004554
 -0.004560
 -0.004596
 -0.004580
 -0.004580
 -0.004575
 -0.004557
 -0.004574
 -0.004545
 -0.004520
 -0.004540
 -0.004548
 -0.004531
 -0.004532
 -0.004543
 -0.004538
 -0.004525
 -0.004544
 -0.004577
 -0.004609
 -0.004653
 -0.004651
 -0.004653
 -0.004676
 -0.004692
 -0.004720
 -0.004730
 -0.004720
 -0.004748
 -0.004764
 -0.004775
 -0.004764
 -0.004773
 -0.004794
 -0.004783
 -0.004765
 -0.004733
 -0.004728
 -0.004696
 -0.004675
 -0.004649
 -0.004584
 -0.004540
 -0.004511
 -0.004452
 -0.004388
 -0.004360
 -0.004322
 -0.004286
 -0.004249
 -0.004234
 -0.004209
 -0.004165
 -0.004163
 -0.004166
 -0.004146
 -0.004129
 -0.004132
 -0.004105
 -0.004082
 -0.004082
 -0.004090
 -0.004083
 -0.004073
 -0.004067
 -0.004059
 -0.004082
 -0.004073
 -0.004055
 -0.004053
 -0.004041
 -0.004026
 -0.003997
 -0.004012
 -0.004004
 -0.004016
 -0.004039
 -0.004034
 -0.004103
 -0.004125
 -0.004143
 -0.004181
 -0.004192
 -0.004229
 -0.004286
 -0.004344
 -0.004364
 -0.004378
 -0.004399
 -0.004431
 -0.004458
 -0.004475
 -0.004500
 -0.004518
 -0.004548
 -0.004561
 -0.004573
 -0.004611
 -0.004634
 -0.004653
 -0.004678
 -0.004708
 -0.004714
 -0.004733
 -0.004748
 -0.004765
 -0.004799
 -0.004855
 -0.004874
 -0.004905
 -0.004987
 -0.005028
 -0.005083
 -0.005137
 -0.005167
 -0.005215
 -0.005252
 -0.005283
 -0.005334
 -0.005343
 -0.005338
 -0.005354
 -0.005345
 -0.005329
 -0.005323
 -0.005348
 -0.005372
 -0.005359
 -0.005356
 -0.005386
 -0.005366
 -0.005329
 -0.005346
 -0.005306
 -0.005269
 -0.005249
 -0.005195
 -0.005150
 -0.005103
 -0.005070
 -0.005022
 -0.004998
 -0.004981
 -0.004925
 -0.004891
 -0.004871
 -0.004851
 -0.004827
 -0.004803
 -0.004778
 -0.004765
 -0.004741
 -0.004728
 -0.004695
 -0.004679
 -0.004674
 -0.004625
 -0.004639
 -0.004633
 -0.004625
 -0.004638
 -0.004640
 -0.004669
 -0.004684
 -0.004715
 -0.004769
 -0.004788
 -0.004799
 -0.004823
 -0.004879
 -0.004927
 -0.004956
 -0.004991
 -0.005006
 -0.005034
 -0.005100
 -0.005178
 -0.005219
 -0.005254
 -0.005275
 -0.005312
 -0.005360
 -0.005362
 -0.005390
 -0.005402
 -0.005451
 -0.005499
 -0.005506
 -0.005536
 -0.005545
 -0.005551
 -0.005588
 -0.005627
 -0.005651
 -0.005666
 -0.005670
 -0.005713
 -0.005756
 -0.005779
 -0.005821
 -0.005833
 -0.005882
 -0.005907
 -0.005934
 -0.005988
 -0.006023
 -0.006051
 -0.006097
 -0.006138
 -0.006189
 -0.006240
 -0.006294
 -0.006326
 -0.006360
 -0.006420
 -0.006463
 -0.006493
 -0.006514
 -0.006584
 -0.006624
 -0.006638
 -0.006665
 -0.006681
 -0.006684
 -0.006700
 -0.006702
 -0.006699
 -0.006728
 -0.006757
 -0.006761
 -0.006770
 -0.006779
 -0.006756
 -0.006738
 -0.006771
 -0.006788
 -0.006799
 -0.006791
 -0.006779
 -0.006803
 -0.006840
 -0.006892
 -0.006876
 -0.006843
 -0.006885
 -0.006869
 -0.006830
 -0.006859
 -0.006894
 -0.006909
 -0.006928
 -0.006897
 -0.006859
 -0.006845
 -0.006859
 -0.006843
 -0.006843
 -0.006836
 -0.006844
 -0.006834
 -0.006838
 -0.006846
 -0.006865
 -0.006917
 -0.006902
 -0.006931
 -0.006979
 -0.007010
 -0.007030
 -0.007027
 -0.007092
 -0.007103
 -0.007128
 -0.007155
 -0.007150
 -0.007175
 -0.007184
 -0.007226
 -0.007256
 -0.007272
 -0.007289
 -0.007286
 -0.007303
 -0.007317
 -0.007320
 -0.007350
 -0.007361
 -0.007364
 -0.007371
 -0.007403
 -0.007428
 -0.007425
 -0.007458
 -0.007490
 -0.007513
 -0.007534
 -0.007555
 -0.007583
 -0.007613
 -0.007627
 -0.007679
 -0.007724
 -0.007766
 -0.007849
 -0.007913
 -0.008044
 -0.008234
 -0.008475
 -0.008804
 -0.009232
 -0.009805
 -0.010410
 -0.010950
 -0.011282
 -0.011174
 -0.010692
 -0.010056
 -0.009556
 -0.009291
 -0.009174
 -0.009176
 -0.009225
 -0.009257
 -0.009287
 -0.009349
 -0.009313
 -0.009142
 -0.008874
 -0.008608
 -0.008437
 -0.008346
 -0.008223
 -0.008145
 -0.008093
 -0.008007
 -0.007942
 -0.007858
 -0.007894
 -0.007953
 -0.007992
 -0.008103
 -0.008217
 -0.008385
 -0.008557
 -0.008779
 -0.008990
 -0.009193
 -0.009454
 -0.009679
 -0.009914
 -0.010126
 -0.010318
 -0.010505
 -0.010664
 -0.010767
 -0.010857
 -0.010910
 -0.010918
 -0.010927
 -0.010864
 -0.010753
 -0.010620
 -0.010443
 -0.010311
 -0.010165
 -0.009987
 -0.009805
 -0.009618
 -0.009453
 -0.009346
 -0.009241
 -0.009093
 -0.009018
 -0.008957
 -0.008905
 -0.008852
 -0.008785
 -0.008756
 -0.008717
 -0.008651
 -0.008607
 -0.008611
 -0.008615
 -0.008615
 -0.008640
 -0.008692
 -0.008750
 -0.008810
 -0.008846
 -0.008858
 -0.008874
 -0.008867
 -0.008841
 -0.008841
 -0.008828
 -0.008802
 -0.008792
 -0.008782
 -0.008799
 -0.008826
 -0.008845
 -0.008909
 -0.008987
 -0.009060
 -0.009101
 -0.009128
 -0.009204
 -0.009241
 -0.009312
 -0.009380
 -0.009396
 -0.009433
 -0.009450
 -0.009486
 -0.009524
 -0.009554
 -0.009588
 -0.009577
 -0.009607
 -0.009657
 -0.009685
 -0.009707
 -0.009717
 -0.009719
 -0.009746
 -0.009748
 -0.009720
 -0.009707
 -0.009683
 -0.009671
 -0.009643
 -0.009627
 -0.009604
 -0.009555
 -0.009513
 -0.009457
 -0.009381
 -0.009302
 -0.009210
 -0.009142
 -0.009073
 -0.008981
 -0.008888
 -0.008809
 -0.008715
 -0.008605
 -0.008518
 -0.008449
 -0.008354
 -0.008237
 -0.008134
 -0.008046
 -0.007938
 -0.007842
 -0.007766
 -0.007655
 -0.007556
 -0.007489
 -0.007396
 -0.007312
 -0.007238
 -0.007135
 -0.007059
 -0.007007
 -0.006950
 -0.006907
 -0.006876
 -0.006836
 -0.006821
 -0.006805
 -0.006789
 -0.006821
 -0.006816
 -0.006819
 -0.006851
 -0.006884
 -0.006962
 -0.007011
 -0.007079
 -0.007162
 -0.007222
 -0.007268
 -0.007279
 -0.007355
 -0.007423
 -0.007464
 -0.007519
 -0.007536
 -0.007584
 -0.007601
 -0.007642
 -0.007707
 -0.007713
 -0.007761
 -0.007762
 -0.007773
 -0.007813
 -0.007809
 -0.007818
 -0.007817
 -0.007830
 -0.007853
 -0.007827
 -0.007797
 -0.007829
 -0.007805
 -0.007767
 -0.007779
 -0.007745
 -0.007739
 -0.007709
 -0.007687
 -0.007708
 -0.007668
 -0.007628
 -0.007581
 -0.007550
 -0.007510
 -0.007494
 -0.007500
 -0.007456
 -0.007458
 -0.007439
 -0.007367
 -0.007352
 -0.007331
 -0.007299
 -0.007275
 -0.007246
 -0.007192
 -0.007128
 -0.007112
 -0.007074
 -0.007091
 -0.007060
 -0.007002
 -0.006977
 -0.006920
 -0.006883
 -0.006847
 -0.006829
 -0.006745
 -0.006710
 -0.006711
 -0.006623
 -0.006545
 -0.006504
 -0.006483
 -0.006450
 -0.006402
 -0.006347
 -0.006314
 -0.006272
 -0.006227
 -0.006176
 -0.006159
 -0.006130
 -0.006076
 -0.006038
 -0.006000
 -0.005970
 -0.005908
 -0.005875
 -0.005826
 -0.005767
 -0.005723
 -0.005701
 -0.005658
 -0.005607
 -0.005558
 -0.005506
 -0.005484
 -0.005442
 -0.005413
 -0.005385
 -0.005384
 -0.005365
 -0.005324
 -0.005311
 -0.005274
 -0.005240
 -0.005181
 -0.005112
 -0.005092
 -0.005051
 -0.005015
 -0.004921
 -0.004831
 -0.004792
 -0.004699
 -0.004623
 -0.004563
 -0.004527
 -0.004457
 -0.004413
 -0.004395
 -0.004337
 -0.004327
 -0.004297
 -0.004286
 -0.004286
 -0.004277
 -0.004297
 -0.004305
 -0.004327
 -0.004352
 -0.004372
 -0.004430
 -0.004437
 -0.004460
 -0.004528
 -0.004568
 -0.004574
 -0.004594
 -0.004649
 -0.004649
 -0.004645
 -0.004599
 -0.004557
 -0.004572
 -0.004509
 -0.004465
 -0.004413
 -0.004333
 -0.004301
 -0.004185
 -0.004138
 -0.004076
 -0.003996
 -0.003956
 -0.003909
 -0.003906
 -0.003849
 -0.003830
 -0.003806
 -0.003823
 -0.003825
 -0.003817
 -0.003857
 -0.003882
 -0.003955
 -0.003991
 -0.004009
 -0.004094
 -0.004103
 -0.004154
 -0.004200
 -0.004201
 -0.004226
 -0.004218
 -0.004220
 -0.004210
 -0.004241
 -0.004216
 -0.004230
 -0.004226
 -0.004194
 -0.004208
 -0.004160
 -0.004132
 -0.004122
 -0.004136
 -0.004143
 -0.004084
 -0.004053
 -0.004071
 -0.004078
 -0.004050
 -0.004039
 -0.004076
 -0.004035
 -0.004046
 -0.004097
 -0.004088
 -0.004114
 -0.004136
 -0.004158
 -0.004155
 -0.004173
 -0.004204
 -0.004234
 -0.004248
 -0.004291
 -0.004322
 -0.004313
 -0.004338
 -0.004331
 -0.004332
 -0.004319
 -0.004368
 -0.004389
 -0.004357
 -0.004377
 -0.004376
 -0.004379
 -0.004356
 -0.004365
 -0.004404
 -0.004369
 -0.004369
 -0.004436
 -0.004456
 -0.004475
 -0.004488
 -0.004519
 -0.004542
 -0.004551
 -0.004548
 -0.004570
 -0.004622
 -0.004616
 -0.004659
 -0.004665
 -0.004673
 -0.004685
 -0.004681
 -0.004720
 -0.004736
 -0.004754
 -0.004789
 -0.004790
 -0.004816
 -0.004814
 -0.004825
 -0.004882
 -0.004845
 -0.004854
 -0.004825
 -0.004848
 -0.004857
 -0.004827
 -0.004862
 -0.004832
 -0.004856
 -0.004805
 -0.004781
 -0.004818
 -0.004769
 -0.004772
 -0.004792
 -0.004750
 -0.004750
 -0.004767
 -0.004774
 -0.004806
 -0.004819
 -0.004782
 -0.004793
 -0.004820
 -0.004785
 -0.004839
 -0.004875
 -0.004880
 -0.004873
 -0.004845
 -0.004914
 -0.004903
 -0.004891
 -0.004937
 -0.004915
 -0.004918
 -0.004921
 -0.004940
 -0.004951
 -0.004936
 -0.004953
 -0.004937
 -0.004910
 -0.004911
 -0.004917
 -0.004909
 -0.004925
 -0.004904
 -0.004889
 -0.004912
 -0.004882
 -0.004892
 -0.004900
 -0.004899
 -0.004914
 -0.004918
 -0.004900
 -0.004896
 -0.004946
 -0.004926
 -0.004927
 -0.004944
 -0.004939
 -0.004965
 -0.004997
 -0.005019
 -0.005005
 -0.005019
 -0.005026
 -0.005055
 -0.005089
 -0.005112
 -0.005140
 -0.005129
 -0.005167
 -0.005186
 -0.005204
 -0.005220
 -0.005217
 -0.005244
 -0.005285
 -0.005301
 -0.005309
 -0.005339
 -0.005335
 -0.005349
 -0.005332
 -0.005319
 -0.005357
 -0.005334
 -0.005327
 -0.005343
 -0.005378
 -0.005392
 -0.005349
 -0.005368
 -0.005366
 -0.005342
 -0.005340
 -0.005342
 -0.005314
 -0.005306
 -0.005354
 -0.005343
 -0.005314
 -0.005341
 -0.005338
 -0.005329
 -0.005334
 -0.005329
 -0.005356
 -0.005355
 -0.005372
 -0.005378
 -0.005382
 -0.005387
 -0.005407
 -0.005437
 -0.005452
 -0.005497
 -0.005531
 -0.005534
 -0.005525
 -0.005556
 -0.005592
 -0.005636
 -0.005651
 -0.005653
 -0.005683
 -0.005718
 -0.005744
 -0.005764
 -0.005790
 -0.005810
 -0.005845
 -0.005858
 -0.005865
 -0.005864
 -0.005872
 -0.005891
 -0.005894
 -0.005891
 -0.005898
 -0.005905
 -0.005919
 -0.005939
 -0.005916
 -0.005924
 -0.005935
 -0.005922
 -0.005923
 -0.005900
 -0.005920
 -0.005933
 -0.005912
 -0.005930
 -0.005892
 -0.005929
 -0.005963
 -0.005954
 -0.005997
 -0.005986
 -0.006030
 -0.006031
 -0.006062
 -0.006124
 -0.006102
 -0.006152
 -0.006176
 -0.006222
 -0.006256
 -0.006255
 -0.006289
 -0.006309
 -0.006329
 -0.006341
 -0.006360
 -0.006363
 -0.006369
 -0.006360
 -0.006374
 -0.006357
 -0.006338
 -0.006377
 -0.006373
 -0.006344
 -0.006336
 -0.006339
 -0.006340
 -0.006335
 -0.006302
 -0.006309
 -0.006342
 -0.006335
 -0.006310
 -0.006316
 -0.006291
 -0.006298
 -0.006328
 -0.006288
 -0.006298
 -0.006286
 -0.006298
 -0.006303
 -0.006302
 -0.006336
 -0.006324
 -0.006352
 -0.006381
 -0.006376
 -0.006406
 -0.006434
 -0.006414
 -0.006460
 -0.006508
 -0.006501
 -0.006532
 -0.006552
 -0.006557
 -0.006596
 -0.006599
 -0.006591
 -0.006615
 -0.006614
 -0.006625
 -0.006607
 -0.006614
 -0.006662
 -0.006643
 -0.006632
 -0.006620
 -0.006598
 -0.006625
 -0.006603
 -0.006605
 -0.006628
 -0.006590
 -0.006600
 -0.006619
 -0.006626
 -0.006625
 -0.006623
 -0.006631
 -0.006662
 -0.006687
 -0.006698
 -0.006706
 -0.006705
 -0.006757
 -0.006770
 -0.006800
 -0.006821
 -0.006833
 -0.006896
 -0.006885
 -0.006915
 -0.006927
 -0.006901
 -0.006910
 -0.006904
 -0.006919
 -0.006896
 -0.006907
 -0.006892
 -0.006874
 -0.006902
 -0.006870
 -0.006869
 -0.006845
 -0.006847
 -0.006867
 -0.006837
 -0.006844
 -0.006856
 -0.006833
 -0.006834
 -0.006848
 -0.006831
 -0.006859
 -0.006845
 -0.006842
 -0.006852
 -0.006839
 -0.006875
 -0.006871
 -0.006906
 -0.006892
 -0.006900
 -0.006903
 -0.006923
 -0.006925
 -0.006907
 -0.006935
 -0.006904
 -0.006933
 -0.006931
 -0.006929
 -0.006932
 -0.006940
 -0.006920
 -0.006899
 -0.006914
 -0.006909
 -0.006921
 -0.006919
 -0.006915
 -0.006921
 -0.006925
 -0.006911
 -0.006937
 -0.006926
 -0.006916
 -0.006904
 -0.006896
 -0.006915
 -0.006901
 -0.006879
 -0.006874
 -0.006876
 -0.006853
 -0.006876
 -0.006833
 -0.006845
 -0.006863
 -0.006808
 -0.006798
 -0.006800
 -0.006794
 -0.006745
 -0.006767
 -0.006745
 -0.006735
 -0.006735
 -0.006722
 -0.006717
 -0.006673
 -0.006716
 -0.006712
 -0.006671
 -0.006705
 -0.006720
 -0.006720
 -0.006697
 -0.006711
 -0.006746
 -0.006725
 -0.006745
 -0.006748
 -0.006739
 -0.006750
 -0.006761
 -0.006742
 -0.006742
 -0.006761
 -0.006741
 -0.006733
 -0.006738
 -0.006751
 -0.006723
 -0.006718
 -0.006738
 -0.006701
 -0.006687
 -0.006683
 -0.006702
 -0.006688
 -0.006664
 -0.006662
 -0.006632
 -0.006670
 -0.006629
 -0.006612
 -0.006653
 -0.006621
 -0.006626
 -0.006649
 -0.006626
 -0.006579
 -0.006609
 -0.006580
 -0.006559
 -0.006581
 -0.006579
 -0.006590
 -0.006579
 -0.006558
 -0.006552
 -0.006560
 -0.006501
 -0.006527
 -0.006545
 -0.006495
 -0.006509
 -0.006487
 -0.006468
 -0.006483
 -0.006485
 -0.006484
 -0.006504
 -0.006539
 -0.006555
 -0.006556
 -0.006577
 -0.006578
 -0.006581
 -0.006589
 -0.006578
 -0.006592
 -0.006578
 -0.006560
 -0.006562
 -0.006550
 -0.006537
 -0.006551
 -0.006549
 -0.006528
 -0.006547
 -0.006510
 -0.006492
 -0.006476
 -0.006438
 -0.006459
 -0.006453
 -0.006416
 -0.006397
 -0.006379
 -0.006337
 -0.006347
 -0.006335
 -0.006301
 -0.006279
 -0.006259
 -0.006251
 -0.006211
 -0.006213
 -0.006192
 -0.006173
 -0.006170
 -0.006150
 -0.006134
 -0.006117
 -0.006129
 -0.006114
 -0.006104
 -0.006116
 -0.006090
 -0.006073
 -0.006097
 -0.006082
 -0.006064
 -0.006073
 -0.006083
 -0.006082
 -0.006102
 -0.006090
 -0.006063
 -0.006089
 -0.006065
 -0.006061
 -0.006064
 -0.006055
 -0.006045
 -0.006021
 -0.006009
 -0.005987
 -0.005975
 -0.005956
 -0.005932
 -0.005894
 -0.005902
 -0.005911
 -0.005853
 -0.005840
 -0.005816
 -0.005792
 -0.005787
 -0.005723
 -0.005712
 -0.005692
 -0.005659
 -0.005646
 -0.005625
 -0.005608
 -0.005590
 -0.005590
 -0.005573
 -0.005558
 -0.005543
 -0.005538
 -0.005539
 -0.005513
 -0.005511
 -0.005520
 -0.005492
 -0.005489
 -0.005467
 -0.005470
 -0.005473
 -0.005452
 -0.005458
 -0.005433
 -0.005413
 -0.005408
 -0.005385
 -0.005365
 -0.005353
 -0.005342
 -0.005344
 -0.005297
 -0.005286
 -0.005291
 -0.005246
 -0.005239
 -0.005227
 -0.005171
 -0.005146
 -0.005131
 -0.005096
 -0.005066
 -0.005042
 -0.005009
 -0.004975
 -0.004962
 -0.004949
 -0.004933
 -0.004899
 -0.004874
 -0.004865
 -0.004858
 -0.004865
 -0.004825
 -0.004795
 -0.004800
 -0.004797
 -0.004790
 -0.004767
 -0.004771
 -0.004755
 -0.004740
 -0.004741
 -0.004708
 -0.004698
 -0.004707
 -0.004688
 -0.004672
 -0.004664
 -0.004631
 -0.004581
 -0.004556
 -0.004524
 -0.004485
 -0.004458
 -0.004404
 -0.004382
 -0.004363
 -0.004318
 -0.004243
 -0.004205
 -0.004175
 -0.004099
 -0.004080
 -0.004025
 -0.003970
 -0.003942
 -0.003910
 -0.003882
 -0.003840
 -0.003796
 -0.003770
 -0.003748
 -0.003700
 -0.003668
 -0.003653
 -0.003633
 -0.003602
 -0.003580
 -0.003599
 -0.003557
 -0.003506
 -0.003518
 -0.003470
 -0.003445
 -0.003440
 -0.003431
 -0.003422
 -0.003384
 -0.003355
 -0.003327
 -0.003312
 -0.003274
 -0.003261
 -0.003241
 -0.003197
 -0.003191
 -0.003168
 -0.003149
 -0.003150
 -0.003128
 -0.003116
 -0.003093
 -0.003082
 -0.003072
 -0.003046
 -0.003059
 -0.003048
 -0.003040
 -0.003052
 -0.003069
 -0.003063
 -0.003053
 -0.003096
 -0.003101
 -0.003103
 -0.003143
 -0.003158
 -0.003160
 -0.003180
 -0.003189
 -0.003186
 -0.003223
 -0.003249
 -0.003262
 -0.003310
 -0.003343
 -0.003372
 -0.003401
 -0.003435
 -0.003482
 -0.003527
 -0.003562
 -0.003588
 -0.003643
 -0.003704
 -0.003738
 -0.003790
 -0.003844
 -0.003890
 -0.003961
 -0.004017
 -0.004068
 -0.004132
 -0.004185
 -0.004239
 -0.004282
 -0.004345
 -0.004411
 -0.004456
 -0.004509
 -0.004555
 -0.004627
 -0.004685
 -0.004732
 -0.004810
 -0.004845
 -0.004879
 -0.004944
 -0.004985
 -0.005019
 -0.005070
 -0.005124
 -0.005156
 -0.005176
 -0.005225
 -0.005275
 -0.005307
 -0.005320
 -0.005347
 -0.005379
 -0.005389
 -0.005413
 -0.005433
 -0.005464
 -0.005480
 -0.005493
 -0.005513
 -0.005535
 -0.005560
 -0.005558
 -0.005544
 -0.005554
 -0.005559
 -0.005550
 -0.005573
 -0.005556
 -0.005546
 -0.005526
 -0.005499
 -0.005498
 -0.005465
 -0.005457
 -0.005445
 -0.005433
 -0.005414
 -0.005384
 -0.005384
 -0.005359
 -0.005353
 -0.005348
 -0.005324
 -0.005320
 -0.005294
 -0.005288
 -0.005289
 -0.005267
 -0.005243
 -0.005240
 -0.005234
 -0.005209
 -0.005209
 -0.005202
 -0.005178
 -0.005173
 -0.005168
 -0.005133
 -0.005127
 -0.005129
 -0.005112
 -0.005083
 -0.005057
 -0.005025
 -0.004990
 -0.004967
 -0.004906
 -0.004859
 -0.004822
 -0.004767
 -0.004704
 -0.004653
 -0.004593
 -0.004544
 -0.004498
 -0.004431
 -0.004384
 -0.004333
 -0.004279
 -0.004221
 -0.004183
 -0.004150
 -0.004115
 -0.004080
 -0.004031
 -0.004013
 -0.003984
 -0.003922
 -0.003879
 -0.003836
 -0.003795
 -0.003757
 -0.003723
 -0.003687
 -0.003639
 -0.003598
 -0.003566
 -0.003548
 -0.003505
 -0.003471
 -0.003463
 -0.003466
 -0.003483
 -0.003459
 -0.003478
 -0.003527
 -0.003549
 -0.003620
 -0.003670
 -0.003720
 -0.003796
 -0.003877
 -0.003989
 -0.004106
 -0.004202
 -0.004313
 -0.004450
 -0.004540
 -0.004664
 -0.004771
 -0.004867
 -0.004983
 -0.005060
 -0.005142
 -0.005218
 -0.005324
 -0.005404
 -0.005483
 -0.005548
 -0.005578
 -0.005651
 -0.005692
 -0.005706
 -0.005752
 -0.005788
 -0.005805
 -0.005824
 -0.005833
 -0.005853
 -0.005857
 -0.005862
 -0.005888
 -0.005878
 -0.005865
 -0.005848
 -0.005830
 -0.005823
 -0.005805
 -0.005781
 -0.005731
 -0.005679
 -0.005668
 -0.005632
 -0.005572
 -0.005551
 -0.005528
 -0.005509
 -0.005484
 -0.005454
 -0.005433
 -0.005388
 -0.005384
 -0.005361
 -0.005310
 -0.005261
 -0.005193
 -0.005124
 -0.005030
 -0.004927
 -0.004832
 -0.004736
 -0.004601
 -0.004473
 -0.004332
 -0.004198
 -0.004067
 -0.003922
 -0.003780
 -0.003600
 -0.003442
 -0.003260
 -0.003086
 -0.002951
 -0.002856
 -0.002819
 -0.002816
 -0.002924
 -0.003121
 -0.003377
 -0.003644
 -0.003881
 -0.004106
 -0.004315
 -0.004503
 -0.004666
 -0.004789
 -0.004908
 -0.005033
 -0.005132
 -0.005222
 -0.005277
 -0.005297
 -0.005292
 -0.005314
 -0.005333
 -0.005296
 -0.005242
 -0.005199
 -0.005186
 -0.005168
 -0.005231
 -0.005305
 -0.005355
 -0.005445
 -0.005506
 -0.005591
 -0.005657
 -0.005702
 -0.005765
 -0.005815
 -0.005856
 -0.005904
 -0.005939
 -0.005969
 -0.005997
 -0.005995
 -0.005981
 -0.005971
 -0.005953
 -0.005910
 -0.005834
 -0.005763
 -0.005711
 -0.005635
 -0.005571
 -0.005492
 -0.005409
 -0.005324
 -0.005245
 -0.005196
 -0.005120
 -0.005048
 -0.004980
 -0.004911
 -0.004849
 -0.004776
 -0.004766
 -0.004774
 -0.004822
 -0.004939
 -0.005076
 -0.005256
 -0.005429
 -0.005661
 -0.005902
 -0.006101
 -0.006266
 -0.006370
 -0.006454
 -0.006458
 -0.006402
 -0.006322
 -0.006202
 -0.006040
 -0.005894
 -0.005755
 -0.005596
 -0.005506
 -0.005425
 -0.005361
 -0.005351
 -0.005354
 -0.005362
 -0.005384
 -0.005416
 -0.005467
 -0.005537
 -0.005601
 -0.005639
 -0.005699
 -0.005799
 -0.005865
 -0.005921
 -0.005987
 -0.006057
 -0.006145
 -0.006225
 -0.006268
 -0.006323
 -0.006384
 -0.006417
 -0.006420
 -0.006431
 -0.006441
 -0.006449
 -0.006410
 -0.006369
 -0.006354
 -0.006309
 -0.006286
 -0.006250
 -0.006208
 -0.006192
 -0.006159
 -0.006117
 -0.006090
 -0.006087
 -0.006077
 -0.006048
 -0.006055
 -0.006089
 -0.006095
 -0.006079
 -0.006088
 -0.006088
 -0.006081
 -0.006081
 -0.006122
 -0.006106
 -0.006118
 -0.006150
 -0.006133
 -0.006147
 -0.006162
 -0.006146
 -0.006148
 -0.006156
 -0.006158
 -0.006180
 -0.006165
 -0.006174
 -0.006187
 -0.006192
 -0.006211
 -0.006219
 -0.006212
 -0.006236
 -0.006276
 -0.006279
 -0.006318
 -0.006340
 -0.006334
 -0.006383
 -0.006390
 -0.006418
 -0.006420
 -0.006429
 -0.006476
 -0.006507
 -0.006530
 -0.006553
 -0.006579
 -0.006585
 -0.006627
 -0.006622
 -0.006627
 -0.006643
 -0.006648
 -0.006657
 -0.006654
 -0.006660
 -0.006646
 -0.006666
 -0.006665
 -0.006657
 -0.006651
 -0.006642
 -0.006637
 -0.006634
 -0.006640
 -0.006623
 -0.006610
 -0.006599
 -0.006606
 -0.006587
 -0.006564
 -0.006586
 -0.006588
 -0.006585
 -0.006590
 -0.006589
 -0.006586
 -0.006580
 -0.006590
 -0.006595
 -0.006601
 -0.006606
 -0.006608
 -0.006612
 -0.006611
 -0.006634
 -0.006637
 -0.006619
 -0.006617
 -0.006619
 -0.006608
 -0.006598
 -0.006597
 -0.006583
 -0.006584
 -0.006565
 -0.006561
 -0.006572
 -0.006557
 -0.006559
 -0.006544
 -0.006525
 -0.006510
 -0.006508
 -0.006492
 -0.006474
 -0.006476
 -0.006466
 -0.006474
 -0.006469
 -0.006441
 -0.006434
 -0.006437
 -0.006424
 -0.006405
 -0.006395
 -0.006391
 -0.006385
 -0.006373
 -0.006367
 -0.006355
 -0.006334
 -0.006319
 -0.006317
 -0.006313
 -0.006306
 -0.006286
 -0.006275
 -0.006271
 -0.006240
 -0.006233
 -0.006224
 -0.006208
 -0.006213
 -0.006202
 -0.006168
 -0.006176
 -0.006155
 -0.006129
 -0.006154
 -0.006123
 -0.006114
 -0.006124
 -0.006093
 -0.006075
 -0.006080
 -0.006080
 -0.006055
 -0.006048
 -0.006044
 -0.006035
 -0.006048
 -0.006030
 -0.006031
 -0.006049
 -0.006026
 -0.006025
 -0.006008
 -0.006010
 -0.006024
 -0.006019
 -0.006042
 -0.006064
 -0.006058
 -0.006065
 -0.006084
 -0.006063
 -0.006104
 -0.006115
 -0.006109
 -0.006144
 -0.006147
 -0.006143
 -0.006138
 -0.006149
 -0.006153
 -0.006147
 -0.006118
 -0.006086
 -0.006080
 -0.006058
 -0.006050
 -0.006054
 -0.006029
 -0.006010
 -0.006012
 -0.006017
 -0.005990
 -0.005982
 -0.005997
 -0.005999
 -0.005986
 -0.005989
 -0.006004
 -0.006033
 -0.006047
 -0.006037
 -0.006079
 -0.006110
 -0.006106
 -0.006100
 -0.006150
 -0.006183
 -0.006192
 -0.006214
 -0.006230
 -0.006267
 -0.006293
 -0.006308
 -0.006311
 -0.006305
 -0.006321
 -0.006330
 -0.006303
 -0.006302
 -0.006300
 -0.006263
 -0.006248
 -0.006205
 -0.006185
 -0.006164
 -0.006135
 -0.006114
 -0.006057
 -0.006069
 -0.006087
 -0.006052
 -0.006067
 -0.006081
 -0.006091
 -0.006113
 -0.006135
 -0.006191
 -0.006207
 -0.006232
 -0.006271
 -0.006294
 -0.006343
 -0.006359
 -0.006375
 -0.006403
 -0.006392
 -0.006399
 -0.006398
 -0.006397
 -0.006363
 -0.006352
 -0.006350
 -0.006310
 -0.006299
 -0.006279
 -0.006255
 -0.006217
 -0.006195
 -0.006177
 -0.006158
 -0.006148
 -0.006117
 -0.006122
 -0.006077
 -0.006056
 -0.006058
 -0.006021
 -0.006032
 -0.006008
 -0.005995
 -0.006001
 -0.005973
 -0.005951
 -0.005928
 -0.005894
 -0.005881
 -0.005858
 -0.005812
 -0.005812
 -0.005764
 -0.005723
 -0.005681
 -0.005575
 -0.005555
