TITLE="CmM2 at 87% radius for 1 revolution"
VARIABLES="CmM2"
ZONE I=  2048, J=   1, K=   1, F=BLOCK
 -0.002088
 -0.002087
 -0.002074
 -0.002070
 -0.002083
 -0.002083
 -0.002101
 -0.002107
 -0.002124
 -0.002157
 -0.002178
 -0.002209
 -0.002241
 -0.002258
 -0.002297
 -0.002314
 -0.002311
 -0.002355
 -0.002348
 -0.002338
 -0.002338
 -0.002320
 -0.002336
 -0.002334
 -0.002322
 -0.002317
 -0.002334
 -0.002344
 -0.002334
 -0.002336
 -0.002342
 -0.002367
 -0.002374
 -0.002392
 -0.002420
 -0.002450
 -0.002493
 -0.002499
 -0.002516
 -0.002553
 -0.002580
 -0.002588
 -0.002579
 -0.002575
 -0.002599
 -0.002634
 -0.002621
 -0.002604
 -0.002596
 -0.002559
 -0.002511
 -0.002506
 -0.002500
 -0.002464
 -0.002391
 -0.002346
 -0.002321
 -0.002259
 -0.002244
 -0.002194
 -0.002128
 -0.002090
 -0.002067
 -0.002066
 -0.002012
 -0.001955
 -0.001944
 -0.001917
 -0.001871
 -0.001850
 -0.001832
 -0.001822
 -0.001814
 -0.001808
 -0.001776
 -0.001760
 -0.001788
 -0.001767
 -0.001749
 -0.001781
 -0.001766
 -0.001761
 -0.001808
 -0.001795
 -0.001796
 -0.001793
 -0.001797
 -0.001832
 -0.001841
 -0.001894
 -0.001904
 -0.001925
 -0.001975
 -0.001973
 -0.001994
 -0.001999
 -0.002018
 -0.002114
 -0.002134
 -0.002141
 -0.002151
 -0.002183
 -0.002223
 -0.002226
 -0.002262
 -0.002266
 -0.002263
 -0.002256
 -0.002264
 -0.002297
 -0.002286
 -0.002259
 -0.002284
 -0.002283
 -0.002261
 -0.002282
 -0.002248
 -0.002276
 -0.002300
 -0.002283
 -0.002288
 -0.002295
 -0.002343
 -0.002345
 -0.002410
 -0.002471
 -0.002480
 -0.002545
 -0.002612
 -0.002662
 -0.002696
 -0.002757
 -0.002817
 -0.002831
 -0.002836
 -0.002878
 -0.002902
 -0.002902
 -0.002902
 -0.002880
 -0.002866
 -0.002853
 -0.002847
 -0.002823
 -0.002853
 -0.002858
 -0.002856
 -0.002844
 -0.002783
 -0.002773
 -0.002754
 -0.002723
 -0.002684
 -0.002654
 -0.002607
 -0.002570
 -0.002508
 -0.002512
 -0.002551
 -0.002503
 -0.002464
 -0.002442
 -0.002447
 -0.002466
 -0.002451
 -0.002447
 -0.002439
 -0.002420
 -0.002426
 -0.002384
 -0.002364
 -0.002354
 -0.002338
 -0.002326
 -0.002331
 -0.002319
 -0.002291
 -0.002318
 -0.002327
 -0.002315
 -0.002285
 -0.002318
 -0.002319
 -0.002319
 -0.002330
 -0.002351
 -0.002382
 -0.002350
 -0.002359
 -0.002383
 -0.002360
 -0.002347
 -0.002399
 -0.002428
 -0.002483
 -0.002542
 -0.002592
 -0.002641
 -0.002704
 -0.002792
 -0.002824
 -0.002916
 -0.002956
 -0.002989
 -0.003027
 -0.003015
 -0.003050
 -0.003048
 -0.003052
 -0.003041
 -0.002980
 -0.002940
 -0.002885
 -0.002821
 -0.002781
 -0.002751
 -0.002725
 -0.002670
 -0.002668
 -0.002603
 -0.002538
 -0.002510
 -0.002485
 -0.002446
 -0.002361
 -0.002396
 -0.002310
 -0.002285
 -0.002302
 -0.002241
 -0.002281
 -0.002237
 -0.002212
 -0.002210
 -0.002164
 -0.002129
 -0.002092
 -0.002097
 -0.002073
 -0.002064
 -0.002067
 -0.002044
 -0.002026
 -0.002002
 -0.002069
 -0.002092
 -0.002102
 -0.002069
 -0.002026
 -0.002072
 -0.002025
 -0.002040
 -0.002016
 -0.002001
 -0.002019
 -0.002035
 -0.002119
 -0.002143
 -0.002276
 -0.002431
 -0.002552
 -0.002740
 -0.002850
 -0.002957
 -0.003121
 -0.003223
 -0.003304
 -0.003351
 -0.003358
 -0.003379
 -0.003387
 -0.003364
 -0.003304
 -0.003270
 -0.003171
 -0.003110
 -0.003028
 -0.002887
 -0.002879
 -0.002806
 -0.002690
 -0.002619
 -0.002562
 -0.002494
 -0.002449
 -0.002386
 -0.002299
 -0.002300
 -0.002263
 -0.002227
 -0.002205
 -0.002122
 -0.002127
 -0.002079
 -0.002048
 -0.002085
 -0.002087
 -0.002097
 -0.002145
 -0.002173
 -0.002146
 -0.002203
 -0.002230
 -0.002278
 -0.002351
 -0.002402
 -0.002504
 -0.002586
 -0.002664
 -0.002845
 -0.003002
 -0.003100
 -0.003220
 -0.003389
 -0.003541
 -0.003673
 -0.003815
 -0.003905
 -0.004029
 -0.004115
 -0.004205
 -0.004285
 -0.004367
 -0.004423
 -0.004383
 -0.004355
 -0.004271
 -0.004162
 -0.004074
 -0.003965
 -0.003837
 -0.003723
 -0.003608
 -0.003519
 -0.003458
 -0.003376
 -0.003338
 -0.003271
 -0.003155
 -0.003113
 -0.003062
 -0.002991
 -0.002956
 -0.002961
 -0.002968
 -0.002960
 -0.002911
 -0.002935
 -0.003002
 -0.003027
 -0.003069
 -0.003095
 -0.003142
 -0.003183
 -0.003253
 -0.003300
 -0.003318
 -0.003321
 -0.003362
 -0.003392
 -0.003390
 -0.003433
 -0.003426
 -0.003421
 -0.003446
 -0.003454
 -0.003451
 -0.003439
 -0.003439
 -0.003447
 -0.003435
 -0.003442
 -0.003452
 -0.003414
 -0.003391
 -0.003377
 -0.003362
 -0.003310
 -0.003284
 -0.003279
 -0.003233
 -0.003178
 -0.003109
 -0.003094
 -0.003067
 -0.003092
 -0.003072
 -0.003049
 -0.003046
 -0.002987
 -0.003012
 -0.002982
 -0.002981
 -0.002957
 -0.002963
 -0.002957
 -0.002944
 -0.002956
 -0.002924
 -0.002882
 -0.002856
 -0.002824
 -0.002751
 -0.002736
 -0.002692
 -0.002637
 -0.002595
 -0.002556
 -0.002500
 -0.002466
 -0.002450
 -0.002390
 -0.002423
 -0.002403
 -0.002358
 -0.002396
 -0.002402
 -0.002409
 -0.002378
 -0.002408
 -0.002408
 -0.002430
 -0.002417
 -0.002411
 -0.002471
 -0.002400
 -0.002381
 -0.002361
 -0.002351
 -0.002321
 -0.002267
 -0.002266
 -0.002230
 -0.002194
 -0.002148
 -0.002127
 -0.002106
 -0.002075
 -0.002035
 -0.002012
 -0.002005
 -0.001960
 -0.001942
 -0.001898
 -0.001849
 -0.001832
 -0.001809
 -0.001769
 -0.001714
 -0.001688
 -0.001654
 -0.001645
 -0.001646
 -0.001627
 -0.001632
 -0.001605
 -0.001619
 -0.001608
 -0.001600
 -0.001653
 -0.001638
 -0.001626
 -0.001586
 -0.001610
 -0.001648
 -0.001673
 -0.001683
 -0.001685
 -0.001737
 -0.001720
 -0.001729
 -0.001769
 -0.001809
 -0.001789
 -0.001781
 -0.001813
 -0.001817
 -0.001858
 -0.001863
 -0.001906
 -0.001953
 -0.001912
 -0.001961
 -0.001938
 -0.001916
 -0.001961
 -0.001934
 -0.001945
 -0.001985
 -0.002007
 -0.002001
 -0.002021
 -0.001998
 -0.002011
 -0.002017
 -0.002001
 -0.002034
 -0.002020
 -0.002055
 -0.002077
 -0.002065
 -0.002073
 -0.002045
 -0.002044
 -0.002030
 -0.002023
 -0.002042
 -0.001998
 -0.002014
 -0.002019
 -0.002003
 -0.001973
 -0.001942
 -0.001935
 -0.001917
 -0.001942
 -0.001912
 -0.001874
 -0.001865
 -0.001863
 -0.001849
 -0.001855
 -0.001833
 -0.001797
 -0.001818
 -0.001792
 -0.001802
 -0.001781
 -0.001768
 -0.001811
 -0.001837
 -0.001822
 -0.001799
 -0.001815
 -0.001805
 -0.001834
 -0.001826
 -0.001851
 -0.001876
 -0.001850
 -0.001926
 -0.001908
 -0.001884
 -0.001926
 -0.001936
 -0.001946
 -0.001973
 -0.001990
 -0.001997
 -0.001988
 -0.001995
 -0.002039
 -0.002039
 -0.002074
 -0.002101
 -0.002058
 -0.002054
 -0.002088
 -0.002106
 -0.002086
 -0.002057
 -0.002070
 -0.002039
 -0.002020
 -0.002032
 -0.002002
 -0.001964
 -0.001989
 -0.001968
 -0.001949
 -0.001951
 -0.001937
 -0.001943
 -0.001892
 -0.001936
 -0.001902
 -0.001872
 -0.001919
 -0.001884
 -0.001890
 -0.001890
 -0.001913
 -0.001936
 -0.001909
 -0.001908
 -0.001945
 -0.001949
 -0.001967
 -0.002010
 -0.002017
 -0.001991
 -0.002015
 -0.002065
 -0.002037
 -0.002055
 -0.002085
 -0.002112
 -0.002118
 -0.002135
 -0.002133
 -0.002113
 -0.002124
 -0.002148
 -0.002174
 -0.002130
 -0.002123
 -0.002144
 -0.002145
 -0.002125
 -0.002139
 -0.002121
 -0.002116
 -0.002163
 -0.002135
 -0.002116
 -0.002183
 -0.002180
 -0.002144
 -0.002175
 -0.002163
 -0.002169
 -0.002156
 -0.002165
 -0.002168
 -0.002120
 -0.002112
 -0.002052
 -0.002054
 -0.002069
 -0.002000
 -0.002000
 -0.001969
 -0.001936
 -0.001941
 -0.001915
 -0.001920
 -0.001891
 -0.001891
 -0.001881
 -0.001851
 -0.001853
 -0.001872
 -0.001891
 -0.001862
 -0.001889
 -0.001911
 -0.001896
 -0.001911
 -0.001935
 -0.001946
 -0.001942
 -0.001976
 -0.002005
 -0.002026
 -0.002040
 -0.002038
 -0.002030
 -0.002020
 -0.002080
 -0.002064
 -0.002045
 -0.002104
 -0.002099
 -0.002093
 -0.002121
 -0.002126
 -0.002133
 -0.002144
 -0.002120
 -0.002133
 -0.002097
 -0.002078
 -0.002098
 -0.002047
 -0.002082
 -0.002111
 -0.002073
 -0.002035
 -0.002025
 -0.002034
 -0.002034
 -0.002068
 -0.002043
 -0.002080
 -0.002045
 -0.001993
 -0.002025
 -0.001970
 -0.002000
 -0.001989
 -0.002020
 -0.002062
 -0.002010
 -0.002025
 -0.002016
 -0.002046
 -0.002068
 -0.002064
 -0.002083
 -0.002059
 -0.002072
 -0.002119
 -0.002126
 -0.002150
 -0.002184
 -0.002210
 -0.002244
 -0.002236
 -0.002253
 -0.002278
 -0.002272
 -0.002263
 -0.002307
 -0.002328
 -0.002329
 -0.002396
 -0.002384
 -0.002369
 -0.002428
 -0.002492
 -0.002487
 -0.002464
 -0.002510
 -0.002501
 -0.002463
 -0.002446
 -0.002463
 -0.002467
 -0.002468
 -0.002575
 -0.002569
 -0.002508
 -0.002532
 -0.002508
 -0.002519
 -0.002539
 -0.002490
 -0.002499
 -0.002506
 -0.002465
 -0.002447
 -0.002421
 -0.002505
 -0.002459
 -0.002415
 -0.002480
 -0.002441
 -0.002487
 -0.002455
 -0.002453
 -0.002497
 -0.002464
 -0.002520
 -0.002551
 -0.002540
 -0.002525
 -0.002480
 -0.002537
 -0.002561
 -0.002557
 -0.002633
 -0.002588
 -0.002583
 -0.002632
 -0.002631
 -0.002649
 -0.002630
 -0.002645
 -0.002681
 -0.002657
 -0.002640
 -0.002676
 -0.002705
 -0.002678
 -0.002669
 -0.002700
 -0.002700
 -0.002703
 -0.002719
 -0.002739
 -0.002763
 -0.002741
 -0.002744
 -0.002776
 -0.002761
 -0.002750
 -0.002754
 -0.002796
 -0.002821
 -0.002727
 -0.002736
 -0.002776
 -0.002791
 -0.002809
 -0.002733
 -0.002809
 -0.002826
 -0.002694
 -0.002718
 -0.002791
 -0.002809
 -0.002774
 -0.002787
 -0.002838
 -0.002820
 -0.002855
 -0.002860
 -0.002820
 -0.002852
 -0.002870
 -0.002903
 -0.002919
 -0.002933
 -0.002995
 -0.002982
 -0.002979
 -0.003011
 -0.003013
 -0.003036
 -0.003057
 -0.003096
 -0.003115
 -0.003110
 -0.003105
 -0.003114
 -0.003115
 -0.003124
 -0.003212
 -0.003214
 -0.003129
 -0.003139
 -0.003185
 -0.003194
 -0.003219
 -0.003257
 -0.003303
 -0.003312
 -0.003299
 -0.003289
 -0.003318
 -0.003321
 -0.003292
 -0.003320
 -0.003330
 -0.003339
 -0.003344
 -0.003324
 -0.003363
 -0.003406
 -0.003379
 -0.003346
 -0.003371
 -0.003409
 -0.003374
 -0.003436
 -0.003416
 -0.003379
 -0.003428
 -0.003368
 -0.003420
 -0.003400
 -0.003399
 -0.003391
 -0.003393
 -0.003519
 -0.003446
 -0.003395
 -0.003432
 -0.003465
 -0.003434
 -0.003416
 -0.003429
 -0.003396
 -0.003448
 -0.003480
 -0.003442
 -0.003455
 -0.003507
 -0.003482
 -0.003478
 -0.003484
 -0.003447
 -0.003506
 -0.003510
 -0.003509
 -0.003510
 -0.003530
 -0.003573
 -0.003525
 -0.003566
 -0.003562
 -0.003565
 -0.003609
 -0.003557
 -0.003586
 -0.003530
 -0.003542
 -0.003635
 -0.003549
 -0.003578
 -0.003612
 -0.003573
 -0.003583
 -0.003594
 -0.003578
 -0.003523
 -0.003522
 -0.003569
 -0.003582
 -0.003551
 -0.003497
 -0.003473
 -0.003515
 -0.003526
 -0.003479
 -0.003501
 -0.003500
 -0.003466
 -0.003475
 -0.003449
 -0.003470
 -0.003453
 -0.003474
 -0.003498
 -0.003436
 -0.003430
 -0.003474
 -0.003516
 -0.003479
 -0.003431
 -0.003469
 -0.003548
 -0.003533
 -0.003511
 -0.003534
 -0.003560
 -0.003556
 -0.003548
 -0.003560
 -0.003596
 -0.003641
 -0.003558
 -0.003626
 -0.003681
 -0.003625
 -0.003670
 -0.003676
 -0.003712
 -0.003695
 -0.003668
 -0.003730
 -0.003755
 -0.003738
 -0.003757
 -0.003755
 -0.003742
 -0.003764
 -0.003705
 -0.003691
 -0.003745
 -0.003728
 -0.003715
 -0.003668
 -0.003715
 -0.003695
 -0.003734
 -0.003797
 -0.003661
 -0.003752
 -0.003731
 -0.003731
 -0.003770
 -0.003735
 -0.003755
 -0.003717
 -0.003826
 -0.003860
 -0.003855
 -0.003905
 -0.003899
 -0.003863
 -0.003877
 -0.003940
 -0.003954
 -0.003955
 -0.003982
 -0.003983
 -0.003967
 -0.003950
 -0.003959
 -0.003952
 -0.003939
 -0.003936
 -0.003902
 -0.003961
 -0.003941
 -0.003940
 -0.003968
 -0.003923
 -0.003940
 -0.003910
 -0.003917
 -0.003912
 -0.003888
 -0.003902
 -0.003881
 -0.003906
 -0.003888
 -0.003853
 -0.003836
 -0.003856
 -0.003892
 -0.003852
 -0.003834
 -0.003845
 -0.003871
 -0.003790
 -0.003783
 -0.003829
 -0.003777
 -0.003799
 -0.003823
 -0.003777
 -0.003791
 -0.003822
 -0.003779
 -0.003791
 -0.003759
 -0.003729
 -0.003768
 -0.003775
 -0.003813
 -0.003837
 -0.003766
 -0.003751
 -0.003840
 -0.003838
 -0.003831
 -0.003804
 -0.003818
 -0.003905
 -0.003859
 -0.003872
 -0.003849
 -0.003813
 -0.003865
 -0.003871
 -0.003896
 -0.003861
 -0.003897
 -0.003935
 -0.003928
 -0.003965
 -0.003928
 -0.003937
 -0.003935
 -0.003913
 -0.003940
 -0.003964
 -0.003928
 -0.003924
 -0.003964
 -0.003927
 -0.003947
 -0.003938
 -0.003911
 -0.003941
 -0.003885
 -0.003880
 -0.003908
 -0.003917
 -0.003890
 -0.003864
 -0.003920
 -0.003925
 -0.003959
 -0.003887
 -0.003843
 -0.003861
 -0.003842
 -0.003854
 -0.003833
 -0.003871
 -0.003874
 -0.003843
 -0.003823
 -0.003839
 -0.003871
 -0.003860
 -0.003853
 -0.003915
 -0.003890
 -0.003863
 -0.003879
 -0.003909
 -0.003942
 -0.003914
 -0.003942
 -0.003949
 -0.003964
 -0.003910
 -0.003955
 -0.003900
 -0.003896
 -0.003977
 -0.003902
 -0.003986
 -0.003961
 -0.003942
 -0.003900
 -0.003914
 -0.003997
 -0.003951
 -0.003922
 -0.003921
 -0.003921
 -0.003880
 -0.003893
 -0.003942
 -0.003899
 -0.003859
 -0.003878
 -0.003856
 -0.003890
 -0.003871
 -0.003843
 -0.003794
 -0.003755
 -0.003795
 -0.003778
 -0.003751
 -0.003785
 -0.003769
 -0.003719
 -0.003743
 -0.003717
 -0.003727
 -0.003715
 -0.003677
 -0.003657
 -0.003658
 -0.003666
 -0.003615
 -0.003659
 -0.003669
 -0.003596
 -0.003646
 -0.003672
 -0.003700
 -0.003672
 -0.003644
 -0.003673
 -0.003601
 -0.003618
 -0.003624
 -0.003662
 -0.003660
 -0.003589
 -0.003573
 -0.003617
 -0.003592
 -0.003516
 -0.003560
 -0.003546
 -0.003554
 -0.003488
 -0.003476
 -0.003484
 -0.003478
 -0.003550
 -0.003445
 -0.003381
 -0.003374
 -0.003463
 -0.003450
 -0.003383
 -0.003377
 -0.003252
 -0.003325
 -0.003267
 -0.003222
 -0.003258
 -0.003236
 -0.003293
 -0.003255
 -0.003239
 -0.003267
 -0.003338
 -0.003229
 -0.003225
 -0.003203
 -0.003194
 -0.003248
 -0.003193
 -0.003208
 -0.003085
 -0.003150
 -0.003164
 -0.003135
 -0.003149
 -0.003098
 -0.003162
 -0.003116
 -0.003135
 -0.003172
 -0.003189
 -0.003148
 -0.003097
 -0.003227
 -0.003309
 -0.003264
 -0.003229
 -0.003206
 -0.003216
 -0.003242
 -0.003210
 -0.003228
 -0.003229
 -0.003234
 -0.003218
 -0.003236
 -0.003273
 -0.003219
 -0.003195
 -0.003194
 -0.003228
 -0.003216
 -0.003171
 -0.003160
 -0.003217
 -0.003278
 -0.003146
 -0.003076
 -0.003044
 -0.003094
 -0.003155
 -0.003049
 -0.003046
 -0.003039
 -0.003011
 -0.002996
 -0.003025
 -0.003002
 -0.002929
 -0.002866
 -0.002851
 -0.002918
 -0.002873
 -0.002820
 -0.002837
 -0.002877
 -0.002901
 -0.002831
 -0.002798
 -0.002774
 -0.002671
 -0.002706
 -0.002759
 -0.002802
 -0.002881
 -0.002803
 -0.002775
 -0.002817
 -0.002789
 -0.002728
 -0.002692
 -0.002683
 -0.002744
 -0.002782
 -0.002763
 -0.002783
 -0.002739
 -0.002769
 -0.002760
 -0.002699
 -0.002715
 -0.002705
 -0.002691
 -0.002640
 -0.002600
 -0.002575
 -0.002614
 -0.002631
 -0.002611
 -0.002635
 -0.002559
 -0.002562
 -0.002598
 -0.002537
 -0.002564
 -0.002576
 -0.002539
 -0.002497
 -0.002498
 -0.002525
 -0.002521
 -0.002542
 -0.002517
 -0.002483
 -0.002463
 -0.002489
 -0.002549
 -0.002521
 -0.002484
 -0.002517
 -0.002541
 -0.002461
 -0.002479
 -0.002503
 -0.002468
 -0.002528
 -0.002549
 -0.002510
 -0.002490
 -0.002510
 -0.002478
 -0.002502
 -0.002546
 -0.002544
 -0.002539
 -0.002485
 -0.002455
 -0.002464
 -0.002509
 -0.002523
 -0.002493
 -0.002487
 -0.002474
 -0.002444
 -0.002486
 -0.002518
 -0.002507
 -0.002473
 -0.002443
 -0.002432
 -0.002428
 -0.002431
 -0.002438
 -0.002441
 -0.002375
 -0.002378
 -0.002425
 -0.002432
 -0.002413
 -0.002413
 -0.002414
 -0.002392
 -0.002421
 -0.002457
 -0.002424
 -0.002398
 -0.002419
 -0.002380
 -0.002404
 -0.002410
 -0.002396
 -0.002373
 -0.002327
 -0.002350
 -0.002326
 -0.002306
 -0.002299
 -0.002282
 -0.002263
 -0.002235
 -0.002216
 -0.002227
 -0.002214
 -0.002154
 -0.002163
 -0.002192
 -0.002181
 -0.002179
 -0.002177
 -0.002195
 -0.002167
 -0.002141
 -0.002163
 -0.002131
 -0.002097
 -0.002096
 -0.002094
 -0.002090
 -0.002052
 -0.002016
 -0.002029
 -0.002046
 -0.002014
 -0.001969
 -0.001996
 -0.002011
 -0.002017
 -0.002023
 -0.001991
 -0.001947
 -0.001922
 -0.001934
 -0.001921
 -0.001897
 -0.001841
 -0.001815
 -0.001817
 -0.001807
 -0.001823
 -0.001823
 -0.001817
 -0.001795
 -0.001808
 -0.001822
 -0.001768
 -0.001725
 -0.001668
 -0.001627
 -0.001589
 -0.001569
 -0.001581
 -0.001533
 -0.001588
 -0.001674
 -0.001703
 -0.001747
 -0.001783
 -0.001841
 -0.001857
 -0.001857
 -0.001848
 -0.001825
 -0.001818
 -0.001817
 -0.001821
 -0.001834
 -0.001858
 -0.001875
 -0.001931
 -0.001962
 -0.001977
 -0.001992
 -0.001980
 -0.002017
 -0.002046
 -0.002054
 -0.002078
 -0.002108
 -0.002124
 -0.002142
 -0.002145
 -0.002153
 -0.002167
 -0.002180
 -0.002224
 -0.002247
 -0.002288
 -0.002303
 -0.002339
 -0.002396
 -0.002380
 -0.002375
 -0.002354
 -0.002370
 -0.002392
 -0.002404
 -0.002462
 -0.002471
 -0.002502
 -0.002525
 -0.002526
 -0.002549
 -0.002562
 -0.002587
 -0.002586
 -0.002627
 -0.002633
 -0.002639
 -0.002692
 -0.002682
 -0.002718
 -0.002727
 -0.002692
 -0.002686
 -0.002698
 -0.002722
 -0.002792
 -0.002788
 -0.002744
 -0.002770
 -0.002783
 -0.002836
 -0.002829
 -0.002849
 -0.002849
 -0.002830
 -0.002850
 -0.002849
 -0.002850
 -0.002823
 -0.002837
 -0.002814
 -0.002835
 -0.002802
 -0.002766
 -0.002792
 -0.002791
 -0.002824
 -0.002815
 -0.002814
 -0.002804
 -0.002772
 -0.002785
 -0.002769
 -0.002724
 -0.002762
 -0.002764
 -0.002765
 -0.002794
 -0.002786
 -0.002808
 -0.002794
 -0.002791
 -0.002790
 -0.002808
 -0.002826
 -0.002806
 -0.002823
 -0.002810
 -0.002793
 -0.002801
 -0.002795
 -0.002774
 -0.002759
 -0.002781
 -0.002778
 -0.002750
 -0.002717
 -0.002696
 -0.002697
 -0.002663
 -0.002641
 -0.002619
 -0.002581
 -0.002563
 -0.002515
 -0.002470
 -0.002444
 -0.002388
 -0.002340
 -0.002341
 -0.002256
 -0.002189
 -0.002186
 -0.002107
 -0.002079
 -0.002027
 -0.001951
 -0.001880
 -0.001847
 -0.001824
 -0.001748
 -0.001730
 -0.001703
 -0.001671
 -0.001636
 -0.001595
 -0.001569
 -0.001553
 -0.001538
 -0.001549
 -0.001581
 -0.001555
 -0.001567
 -0.001615
 -0.001629
 -0.001633
 -0.001635
 -0.001692
 -0.001740
 -0.001784
 -0.001835
 -0.001891
 -0.001950
 -0.001963
 -0.002025
 -0.002097
 -0.002147
 -0.002207
 -0.002251
 -0.002304
 -0.002367
 -0.002425
 -0.002488
 -0.002555
 -0.002613
 -0.002665
 -0.002699
 -0.002747
 -0.002807
 -0.002854
 -0.002878
 -0.002927
 -0.002967
 -0.002995
 -0.003040
 -0.003044
 -0.003073
 -0.003067
 -0.003086
 -0.003116
 -0.003109
 -0.003141
 -0.003128
 -0.003124
 -0.003127
 -0.003100
 -0.003100
 -0.003089
 -0.003046
 -0.003004
 -0.002996
 -0.002961
 -0.002913
 -0.002886
 -0.002828
 -0.002804
 -0.002786
 -0.002750
 -0.002691
 -0.002640
 -0.002599
 -0.002523
 -0.002460
 -0.002412
 -0.002375
 -0.002320
 -0.002275
 -0.002216
 -0.002158
 -0.002123
 -0.002059
 -0.001982
 -0.001904
 -0.001855
 -0.001748
 -0.001658
 -0.001573
 -0.001478
 -0.001428
 -0.001323
 -0.001230
 -0.001160
 -0.001081
 -0.001011
 -0.000929
 -0.000859
 -0.000822
 -0.000755
 -0.000729
 -0.000735
 -0.000751
 -0.000796
 -0.000836
 -0.000898
 -0.001006
 -0.001155
 -0.001268
 -0.001380
 -0.001480
 -0.001584
 -0.001709
 -0.001811
 -0.001928
 -0.002024
 -0.002117
 -0.002231
 -0.002329
 -0.002408
 -0.002472
 -0.002551
 -0.002620
 -0.002644
 -0.002666
 -0.002680
 -0.002666
 -0.002660
 -0.002620
 -0.002594
 -0.002598
 -0.002575
 -0.002557
 -0.002557
 -0.002565
 -0.002575
 -0.002616
 -0.002637
 -0.002664
 -0.002697
 -0.002715
 -0.002700
 -0.002703
 -0.002733
 -0.002716
 -0.002738
 -0.002736
 -0.002697
 -0.002650
 -0.002593
 -0.002543
 -0.002464
 -0.002378
 -0.002300
 -0.002202
 -0.002082
 -0.001946
 -0.001786
 -0.001601
 -0.001444
 -0.001349
 -0.001298
 -0.001322
 -0.001372
 -0.001470
 -0.001591
 -0.001663
 -0.001752
 -0.001826
 -0.001883
 -0.001959
 -0.002027
 -0.002101
 -0.002218
 -0.002367
 -0.002546
 -0.002688
 -0.002794
 -0.002829
 -0.002658
 -0.002371
 -0.001964
 -0.001489
 -0.001036
 -0.000698
 -0.000539
 -0.000417
 -0.000405
 -0.000474
 -0.000545
 -0.000647
 -0.000814
 -0.001007
 -0.001151
 -0.001294
 -0.001387
 -0.001491
 -0.001658
 -0.001871
 -0.002145
 -0.002362
 -0.002522
 -0.002585
 -0.002599
 -0.002632
 -0.002646
 -0.002708
 -0.002779
 -0.002863
 -0.002897
 -0.002886
 -0.002885
 -0.002871
 -0.002852
 -0.002817
 -0.002785
 -0.002747
 -0.002693
 -0.002638
 -0.002560
 -0.002481
 -0.002450
 -0.002394
 -0.002336
 -0.002278
 -0.002186
 -0.002170
 -0.002162
 -0.002104
 -0.002040
 -0.001993
 -0.001952
 -0.001917
 -0.001875
 -0.001806
 -0.001799
 -0.001759
 -0.001690
 -0.001684
 -0.001670
 -0.001614
 -0.001592
 -0.001578
 -0.001543
 -0.001547
 -0.001507
 -0.001522
 -0.001556
 -0.001551
 -0.001575
 -0.001587
 -0.001604
 -0.001638
 -0.001639
 -0.001612
 -0.001627
 -0.001594
 -0.001589
 -0.001596
 -0.001540
 -0.001544
 -0.001513
 -0.001482
 -0.001470
 -0.001414
 -0.001378
 -0.001333
 -0.001297
 -0.001276
 -0.001286
 -0.001284
 -0.001251
 -0.001253
 -0.001273
 -0.001282
 -0.001317
 -0.001351
 -0.001373
 -0.001426
 -0.001494
 -0.001545
 -0.001579
 -0.001599
 -0.001622
 -0.001690
 -0.001734
 -0.001733
 -0.001776
 -0.001818
 -0.001850
 -0.001907
 -0.001976
 -0.002020
 -0.002082
 -0.002191
 -0.002262
 -0.002345
 -0.002379
 -0.002428
 -0.002479
 -0.002534
 -0.002568
 -0.002542
 -0.002541
 -0.002478
 -0.002450
 -0.002478
 -0.002486
 -0.002516
 -0.002555
 -0.002572
 -0.002581
 -0.002602
 -0.002593
 -0.002572
 -0.002575
 -0.002570
 -0.002548
 -0.002520
 -0.002495
 -0.002476
 -0.002464
 -0.002443
 -0.002415
 -0.002380
 -0.002333
 -0.002341
 -0.002294
 -0.002250
 -0.002267
 -0.002230
 -0.002198
 -0.002183
 -0.002181
 -0.002148
 -0.002136
 -0.002102
 -0.002074
 -0.002060
 -0.002021
 -0.002014
 -0.001973
 -0.001967
 -0.001993
 -0.001961
 -0.001932
 -0.001928
 -0.001916
 -0.001904
 -0.001908
 -0.001909
 -0.001880
 -0.001856
 -0.001849
 -0.001849
 -0.001862
 -0.001863
 -0.001838
 -0.001845
 -0.001834
 -0.001843
 -0.001852
 -0.001839
 -0.001890
 -0.001885
 -0.001872
 -0.001881
 -0.001884
 -0.001884
 -0.001867
 -0.001887
 -0.001864
 -0.001871
 -0.001886
 -0.001877
 -0.001868
 -0.001854
 -0.001865
 -0.001852
 -0.001864
 -0.001857
 -0.001863
 -0.001873
 -0.001844
 -0.001864
 -0.001897
 -0.001896
 -0.001941
 -0.001959
 -0.001941
 -0.001954
 -0.001970
 -0.001984
 -0.001982
 -0.001971
 -0.001949
 -0.001928
 -0.001914
 -0.001931
 -0.001937
 -0.001927
 -0.001935
 -0.001951
 -0.001940
 -0.001958
 -0.002005
 -0.002000
 -0.002022
 -0.002087
 -0.002115
 -0.002154
 -0.002235
 -0.002272
 -0.002304
 -0.002345
 -0.002363
 -0.002372
 -0.002434
 -0.002489
 -0.002498
 -0.002536
 -0.002586
 -0.002605
 -0.002622
 -0.002625
 -0.002624
 -0.002667
 -0.002668
 -0.002665
 -0.002682
 -0.002659
 -0.002669
 -0.002684
 -0.002669
 -0.002656
 -0.002637
 -0.002615
 -0.002589
 -0.002584
 -0.002566
 -0.002516
 -0.002513
 -0.002504
 -0.002456
 -0.002466
 -0.002465
 -0.002430
 -0.002402
 -0.002395
 -0.002413
 -0.002435
 -0.002431
 -0.002407
 -0.002388
 -0.002428
 -0.002464
 -0.002437
 -0.002478
 -0.002493
 -0.002467
 -0.002466
 -0.002475
 -0.002467
 -0.002455
 -0.002432
 -0.002382
 -0.002370
 -0.002344
 -0.002337
 -0.002329
 -0.002307
 -0.002303
 -0.002277
 -0.002304
 -0.002265
 -0.002226
 -0.002268
 -0.002251
 -0.002248
 -0.002227
 -0.002182
 -0.002211
 -0.002223
 -0.002174
 -0.002200
 -0.002195
 -0.002148
 -0.002163
 -0.002150
 -0.002115
 -0.002128
 -0.002134
 -0.002088
 -0.002096
