TITLE="CnM2 at 87% radius for 1 revolution"
VARIABLES="CnM2"
ZONE I=  2048, J=   1, K=   1, F=BLOCK
  0.144873
  0.144726
  0.144523
  0.144466
  0.144410
  0.144324
  0.144311
  0.144309
  0.144358
  0.144283
  0.144410
  0.144304
  0.144257
  0.144332
  0.144147
  0.144021
  0.143968
  0.143832
  0.143651
  0.143592
  0.143367
  0.143138
  0.142883
  0.142605
  0.142322
  0.142027
  0.141776
  0.141409
  0.140993
  0.140613
  0.140198
  0.139739
  0.139233
  0.138874
  0.138415
  0.137960
  0.137616
  0.137261
  0.136994
  0.136682
  0.136482
  0.136245
  0.136090
  0.136076
  0.135968
  0.135810
  0.135599
  0.135520
  0.135439
  0.135134
  0.134881
  0.134678
  0.134200
  0.133731
  0.133310
  0.132906
  0.132556
  0.132084
  0.131794
  0.131377
  0.130911
  0.130568
  0.130094
  0.129563
  0.128988
  0.128380
  0.127811
  0.127158
  0.126512
  0.126040
  0.125349
  0.124704
  0.124033
  0.123387
  0.122688
  0.122054
  0.121394
  0.120625
  0.120057
  0.119292
  0.118619
  0.118059
  0.117347
  0.116660
  0.116086
  0.115381
  0.114642
  0.113977
  0.113292
  0.112576
  0.111818
  0.111138
  0.110430
  0.109738
  0.109038
  0.108276
  0.107531
  0.106903
  0.106155
  0.105460
  0.104884
  0.104234
  0.103596
  0.103020
  0.102432
  0.101903
  0.101488
  0.101015
  0.100563
  0.100191
  0.099900
  0.099672
  0.099480
  0.099324
  0.099219
  0.099222
  0.099293
  0.099352
  0.099466
  0.099684
  0.099736
  0.099853
  0.100036
  0.100055
  0.100120
  0.100170
  0.100165
  0.100133
  0.100068
  0.100007
  0.099891
  0.099761
  0.099674
  0.099467
  0.099174
  0.098943
  0.098766
  0.098475
  0.098112
  0.097794
  0.097372
  0.097015
  0.096678
  0.096337
  0.095963
  0.095603
  0.095221
  0.094783
  0.094346
  0.093806
  0.093100
  0.092321
  0.091440
  0.090359
  0.089251
  0.088219
  0.087169
  0.086214
  0.085260
  0.084353
  0.083667
  0.082957
  0.082229
  0.081561
  0.080872
  0.080231
  0.079650
  0.079106
  0.078462
  0.077869
  0.077307
  0.076692
  0.076100
  0.075508
  0.074924
  0.074292
  0.073676
  0.073060
  0.072419
  0.071798
  0.071216
  0.070581
  0.069943
  0.069325
  0.068669
  0.068012
  0.067303
  0.066634
  0.065994
  0.065404
  0.064707
  0.064079
  0.063568
  0.062952
  0.062462
  0.061997
  0.061576
  0.061288
  0.061085
  0.060988
  0.061075
  0.061175
  0.061358
  0.061673
  0.062005
  0.062357
  0.062595
  0.062878
  0.063116
  0.063241
  0.063356
  0.063449
  0.063391
  0.063169
  0.063019
  0.062744
  0.062296
  0.061881
  0.061345
  0.060781
  0.060177
  0.059540
  0.058872
  0.058129
  0.057426
  0.056673
  0.055924
  0.055247
  0.054504
  0.053810
  0.053114
  0.052395
  0.051738
  0.051033
  0.050392
  0.049627
  0.048945
  0.048311
  0.047521
  0.046929
  0.046246
  0.045531
  0.044918
  0.044297
  0.043731
  0.043176
  0.042673
  0.042163
  0.041610
  0.041029
  0.040497
  0.040130
  0.039720
  0.039264
  0.038839
  0.038379
  0.037981
  0.037728
  0.037521
  0.037205
  0.036901
  0.036616
  0.036422
  0.036186
  0.035909
  0.035716
  0.035476
  0.035406
  0.035258
  0.035019
  0.034847
  0.034606
  0.034371
  0.034227
  0.034082
  0.033927
  0.033739
  0.033508
  0.033412
  0.033283
  0.033155
  0.033035
  0.032800
  0.032692
  0.032506
  0.032302
  0.032194
  0.031974
  0.031777
  0.031634
  0.031464
  0.031302
  0.031156
  0.031017
  0.030819
  0.030665
  0.030544
  0.030384
  0.030221
  0.030041
  0.029944
  0.029805
  0.029602
  0.029426
  0.029227
  0.029025
  0.028881
  0.028634
  0.028455
  0.028354
  0.028229
  0.028090
  0.027950
  0.027781
  0.027585
  0.027382
  0.027381
  0.027364
  0.027241
  0.027116
  0.026987
  0.027030
  0.027042
  0.027197
  0.027160
  0.026983
  0.027104
  0.027066
  0.026869
  0.026973
  0.027209
  0.027369
  0.027544
  0.027572
  0.027656
  0.027796
  0.028092
  0.028385
  0.028626
  0.028915
  0.029262
  0.029525
  0.029844
  0.030051
  0.030301
  0.030680
  0.030856
  0.031034
  0.031273
  0.031454
  0.031545
  0.031620
  0.031786
  0.031845
  0.031845
  0.031833
  0.031752
  0.031673
  0.031578
  0.031501
  0.031313
  0.031102
  0.030882
  0.030517
  0.030184
  0.029774
  0.029350
  0.028909
  0.028355
  0.027787
  0.027166
  0.026604
  0.025925
  0.025210
  0.024534
  0.023836
  0.023099
  0.022203
  0.021307
  0.020386
  0.019365
  0.018204
  0.017013
  0.015647
  0.014150
  0.012599
  0.010793
  0.008919
  0.006920
  0.004993
  0.003592
  0.003069
  0.004446
  0.008376
  0.015224
  0.024472
  0.034397
  0.043976
  0.051912
  0.057129
  0.060813
  0.064028
  0.066732
  0.068898
  0.070373
  0.071283
  0.071954
  0.071989
  0.071298
  0.070090
  0.068717
  0.067405
  0.066141
  0.064694
  0.063310
  0.062067
  0.060806
  0.059644
  0.058439
  0.057580
  0.056872
  0.056215
  0.055760
  0.055472
  0.055579
  0.055812
  0.056189
  0.056709
  0.057356
  0.058196
  0.059134
  0.060233
  0.061506
  0.062843
  0.064213
  0.065701
  0.067184
  0.068746
  0.070348
  0.071917
  0.073619
  0.075246
  0.076653
  0.077979
  0.079186
  0.080456
  0.081553
  0.082444
  0.083290
  0.083967
  0.084584
  0.085238
  0.085748
  0.086082
  0.086456
  0.086847
  0.087142
  0.087347
  0.087534
  0.087845
  0.088182
  0.088644
  0.089299
  0.090121
  0.091203
  0.092427
  0.093881
  0.095442
  0.096958
  0.098400
  0.099677
  0.100758
  0.101639
  0.102259
  0.102591
  0.102831
  0.102948
  0.103054
  0.102996
  0.102876
  0.102980
  0.103042
  0.103118
  0.103279
  0.103339
  0.103438
  0.103598
  0.103750
  0.104017
  0.104201
  0.104455
  0.104785
  0.105016
  0.105312
  0.105607
  0.106021
  0.106557
  0.107084
  0.107645
  0.108098
  0.108710
  0.109412
  0.110084
  0.110766
  0.111418
  0.112009
  0.112711
  0.113601
  0.114464
  0.115524
  0.116642
  0.117775
  0.118849
  0.119814
  0.120790
  0.121886
  0.122981
  0.124006
  0.125042
  0.126009
  0.126912
  0.127763
  0.128563
  0.129270
  0.129893
  0.130609
  0.131212
  0.131608
  0.132014
  0.132472
  0.132953
  0.133579
  0.134356
  0.135250
  0.136136
  0.136914
  0.137500
  0.137889
  0.138116
  0.138279
  0.138451
  0.138555
  0.138734
  0.138929
  0.139100
  0.139145
  0.138915
  0.138743
  0.138497
  0.138172
  0.138048
  0.137892
  0.137760
  0.137820
  0.137574
  0.137411
  0.137335
  0.137072
  0.137106
  0.136971
  0.136914
  0.136919
  0.136906
  0.136980
  0.137009
  0.137204
  0.137321
  0.137442
  0.137619
  0.137864
  0.138251
  0.138579
  0.138962
  0.139331
  0.139585
  0.139943
  0.140246
  0.140527
  0.140856
  0.141163
  0.141591
  0.142067
  0.142450
  0.142916
  0.143409
  0.143707
  0.144163
  0.144502
  0.144766
  0.145226
  0.145525
  0.146018
  0.146368
  0.146640
  0.146976
  0.147196
  0.147597
  0.147893
  0.148236
  0.148500
  0.148820
  0.149165
  0.149429
  0.149939
  0.150336
  0.150655
  0.151081
  0.151473
  0.151792
  0.152122
  0.152410
  0.152650
  0.153039
  0.153598
  0.153993
  0.154472
  0.154752
  0.154990
  0.155423
  0.155871
  0.156367
  0.156658
  0.157037
  0.157091
  0.157346
  0.157914
  0.158173
  0.158461
  0.158847
  0.159166
  0.159380
  0.159601
  0.159823
  0.160260
  0.160545
  0.160712
  0.160882
  0.161191
  0.161360
  0.161484
  0.161813
  0.162017
  0.162260
  0.162361
  0.162654
  0.162779
  0.162882
  0.163116
  0.163255
  0.163448
  0.163594
  0.163748
  0.163838
  0.163977
  0.164007
  0.164047
  0.164149
  0.164262
  0.164294
  0.164163
  0.164099
  0.164036
  0.163966
  0.163765
  0.163609
  0.163676
  0.163506
  0.163347
  0.163145
  0.162931
  0.162814
  0.162508
  0.162298
  0.162083
  0.161915
  0.161719
  0.161574
  0.161445
  0.161156
  0.161026
  0.160880
  0.160724
  0.160585
  0.160482
  0.160390
  0.160283
  0.160250
  0.160235
  0.160216
  0.160294
  0.160246
  0.160146
  0.160112
  0.160139
  0.160060
  0.159883
  0.159898
  0.159762
  0.159495
  0.159177
  0.158816
  0.158537
  0.158165
  0.157749
  0.157274
  0.156721
  0.156261
  0.155573
  0.154941
  0.154365
  0.153756
  0.153106
  0.152575
  0.152108
  0.151513
  0.151008
  0.150307
  0.149925
  0.149435
  0.148892
  0.148536
  0.148137
  0.147900
  0.147397
  0.146890
  0.146597
  0.146114
  0.145738
  0.145303
  0.144694
  0.144329
  0.144023
  0.143370
  0.142714
  0.142358
  0.141712
  0.141223
  0.140766
  0.140091
  0.139438
  0.138747
  0.138254
  0.137489
  0.136792
  0.136318
  0.135367
  0.134681
  0.134029
  0.133232
  0.132597
  0.131748
  0.131166
  0.130504
  0.129888
  0.129328
  0.128584
  0.127960
  0.127383
  0.126845
  0.126102
  0.125691
  0.125298
  0.124473
  0.123851
  0.123430
  0.122814
  0.122188
  0.121524
  0.120868
  0.120146
  0.119191
  0.118666
  0.118018
  0.117200
  0.116500
  0.115689
  0.114936
  0.114112
  0.113427
  0.112765
  0.111864
  0.111105
  0.110512
  0.109817
  0.109133
  0.108454
  0.107748
  0.106978
  0.106342
  0.105554
  0.104823
  0.104258
  0.103500
  0.102980
  0.102132
  0.101402
  0.100842
  0.100069
  0.099465
  0.098801
  0.098175
  0.097444
  0.096778
  0.096243
  0.095470
  0.094835
  0.094234
  0.093391
  0.092850
  0.092047
  0.091388
  0.090670
  0.089769
  0.089271
  0.088464
  0.087802
  0.086919
  0.086110
  0.085539
  0.084639
  0.083916
  0.083270
  0.082471
  0.081729
  0.081113
  0.080439
  0.079752
  0.079152
  0.078362
  0.077650
  0.077076
  0.076246
  0.075754
  0.075253
  0.074563
  0.073858
  0.073145
  0.072709
  0.072056
  0.071432
  0.070818
  0.070126
  0.069568
  0.068943
  0.068458
  0.067862
  0.067198
  0.066652
  0.066083
  0.065455
  0.064857
  0.064346
  0.063748
  0.063223
  0.062627
  0.062081
  0.061571
  0.060905
  0.060350
  0.059754
  0.059177
  0.058679
  0.058135
  0.057500
  0.056916
  0.056488
  0.055940
  0.055380
  0.054844
  0.054317
  0.053780
  0.053270
  0.052856
  0.052285
  0.051773
  0.051231
  0.050787
  0.050396
  0.049912
  0.049473
  0.048925
  0.048510
  0.048140
  0.047743
  0.047306
  0.046850
  0.046507
  0.046239
  0.045848
  0.045496
  0.045192
  0.044836
  0.044549
  0.044104
  0.043804
  0.043526
  0.043152
  0.042900
  0.042600
  0.042388
  0.042113
  0.041701
  0.041397
  0.041083
  0.040743
  0.040419
  0.040112
  0.039761
  0.039477
  0.039256
  0.038939
  0.038579
  0.038326
  0.038084
  0.037819
  0.037534
  0.037283
  0.037093
  0.036806
  0.036606
  0.036381
  0.036139
  0.035870
  0.035662
  0.035428
  0.035269
  0.035157
  0.034940
  0.034730
  0.034412
  0.034301
  0.034121
  0.034032
  0.033879
  0.033613
  0.033541
  0.033402
  0.033300
  0.033172
  0.033026
  0.032928
  0.032860
  0.032697
  0.032533
  0.032421
  0.032334
  0.032206
  0.032090
  0.031926
  0.031822
  0.031813
  0.031681
  0.031623
  0.031500
  0.031419
  0.031340
  0.031209
  0.031135
  0.030983
  0.031033
  0.031017
  0.030891
  0.030887
  0.030724
  0.030760
  0.030739
  0.030730
  0.030801
  0.030664
  0.030748
  0.030694
  0.030690
  0.030784
  0.030688
  0.030703
  0.030765
  0.030850
  0.030861
  0.030852
  0.030940
  0.030987
  0.031036
  0.031089
  0.031084
  0.031126
  0.031155
  0.031181
  0.031287
  0.031260
  0.031285
  0.031467
  0.031555
  0.031556
  0.031719
  0.031824
  0.031901
  0.032054
  0.032075
  0.032246
  0.032464
  0.032584
  0.032649
  0.032789
  0.032865
  0.033043
  0.033271
  0.033275
  0.033474
  0.033589
  0.033758
  0.033890
  0.033971
  0.034237
  0.034354
  0.034516
  0.034688
  0.034769
  0.034986
  0.035199
  0.035255
  0.035490
  0.035725
  0.035836
  0.036083
  0.036325
  0.036507
  0.036768
  0.036960
  0.037121
  0.037425
  0.037651
  0.037914
  0.038134
  0.038341
  0.038687
  0.038902
  0.039090
  0.039272
  0.039491
  0.039813
  0.040002
  0.040207
  0.040514
  0.040715
  0.041003
  0.041292
  0.041592
  0.041902
  0.042094
  0.042413
  0.042749
  0.042991
  0.043301
  0.043612
  0.043835
  0.044247
  0.044582
  0.044912
  0.045256
  0.045588
  0.046033
  0.046291
  0.046702
  0.047019
  0.047290
  0.047643
  0.047929
  0.048307
  0.048585
  0.048971
  0.049221
  0.049506
  0.049929
  0.050163
  0.050547
  0.050807
  0.051132
  0.051556
  0.051800
  0.052167
  0.052546
  0.052842
  0.053171
  0.053547
  0.053816
  0.054226
  0.054549
  0.054926
  0.055319
  0.055595
  0.056099
  0.056428
  0.056850
  0.057241
  0.057668
  0.057999
  0.058444
  0.058876
  0.059169
  0.059675
  0.059996
  0.060513
  0.060944
  0.061311
  0.061800
  0.062253
  0.062610
  0.062947
  0.063450
  0.063903
  0.064334
  0.064770
  0.065175
  0.065628
  0.066131
  0.066540
  0.066982
  0.067465
  0.067853
  0.068213
  0.068723
  0.069223
  0.069640
  0.070093
  0.070549
  0.071042
  0.071452
  0.071939
  0.072374
  0.072834
  0.073373
  0.073733
  0.074147
  0.074647
  0.075084
  0.075440
  0.075910
  0.076371
  0.076777
  0.077213
  0.077676
  0.078096
  0.078446
  0.079037
  0.079528
  0.079842
  0.080401
  0.080880
  0.081372
  0.081814
  0.082305
  0.082933
  0.083346
  0.083884
  0.084385
  0.084854
  0.085396
  0.085888
  0.086305
  0.086807
  0.087372
  0.087816
  0.088291
  0.088746
  0.089304
  0.089736
  0.090188
  0.090762
  0.091141
  0.091635
  0.092124
  0.092683
  0.093147
  0.093529
  0.094067
  0.094488
  0.095008
  0.095399
  0.095858
  0.096421
  0.096844
  0.097316
  0.097855
  0.098269
  0.098618
  0.099197
  0.099579
  0.100024
  0.100519
  0.100961
  0.101440
  0.101855
  0.102294
  0.102684
  0.103153
  0.103423
  0.103964
  0.104469
  0.104730
  0.105270
  0.105598
  0.106104
  0.106573
  0.106975
  0.107526
  0.108000
  0.108644
  0.109186
  0.109681
  0.110190
  0.110618
  0.111081
  0.111505
  0.111900
  0.112358
  0.112796
  0.113145
  0.113570
  0.113995
  0.114338
  0.114766
  0.115214
  0.115663
  0.116013
  0.116351
  0.116741
  0.117053
  0.117482
  0.117894
  0.118259
  0.118533
  0.118842
  0.119213
  0.119505
  0.119908
  0.120211
  0.120543
  0.120895
  0.121163
  0.121496
  0.121777
  0.122171
  0.122410
  0.122679
  0.123092
  0.123385
  0.123710
  0.124033
  0.124433
  0.124776
  0.125088
  0.125439
  0.125748
  0.126087
  0.126505
  0.126823
  0.127167
  0.127538
  0.127894
  0.128331
  0.128711
  0.129065
  0.129425
  0.129816
  0.130145
  0.130539
  0.130930
  0.131304
  0.131661
  0.131980
  0.132358
  0.132696
  0.133080
  0.133400
  0.133734
  0.134049
  0.134416
  0.134826
  0.135050
  0.135411
  0.135738
  0.136060
  0.136425
  0.136604
  0.136922
  0.137258
  0.137527
  0.137807
  0.138111
  0.138387
  0.138681
  0.138991
  0.139264
  0.139563
  0.139837
  0.140165
  0.140478
  0.140758
  0.141038
  0.141394
  0.141705
  0.142008
  0.142310
  0.142622
  0.142989
  0.143299
  0.143604
  0.143918
  0.144179
  0.144509
  0.144846
  0.145093
  0.145427
  0.145729
  0.146039
  0.146310
  0.146594
  0.146900
  0.147141
  0.147435
  0.147737
  0.147951
  0.148140
  0.148386
  0.148622
  0.148840
  0.149039
  0.149250
  0.149431
  0.149638
  0.149878
  0.150086
  0.150234
  0.150409
  0.150651
  0.150855
  0.151090
  0.151239
  0.151372
  0.151607
  0.151821
  0.152010
  0.152213
  0.152426
  0.152628
  0.152828
  0.153044
  0.153218
  0.153402
  0.153634
  0.153805
  0.154011
  0.154213
  0.154339
  0.154445
  0.154579
  0.154717
  0.154845
  0.154960
  0.154988
  0.155146
  0.155282
  0.155294
  0.155320
  0.155371
  0.155416
  0.155380
  0.155452
  0.155448
  0.155431
  0.155481
  0.155458
  0.155479
  0.155467
  0.155446
  0.155460
  0.155476
  0.155444
  0.155424
  0.155435
  0.155441
  0.155436
  0.155435
  0.155523
  0.155478
  0.155381
  0.155399
  0.155325
  0.155265
  0.155231
  0.155180
  0.155130
  0.155025
  0.154911
  0.154826
  0.154710
  0.154542
  0.154423
  0.154275
  0.154076
  0.153930
  0.153763
  0.153578
  0.153465
  0.153214
  0.152989
  0.152783
  0.152526
  0.152317
  0.152002
  0.151772
  0.151531
  0.151230
  0.151009
  0.150814
  0.150547
  0.150275
  0.150074
  0.149810
  0.149496
  0.149237
  0.148953
  0.148595
  0.148305
  0.147952
  0.147527
  0.147176
  0.146770
  0.146360
  0.146015
  0.145645
  0.145253
  0.144847
  0.144411
  0.143960
  0.143565
  0.143168
  0.142730
  0.142282
  0.141854
  0.141377
  0.140913
  0.140470
  0.139991
  0.139613
  0.139177
  0.138712
  0.138271
  0.137795
  0.137302
  0.136805
  0.136386
  0.135897
  0.135397
  0.134956
  0.134475
  0.134109
  0.133736
  0.133299
  0.132871
  0.132331
  0.131805
  0.131375
  0.130924
  0.130436
  0.129977
  0.129535
  0.129037
  0.128519
  0.128070
  0.127630
  0.127205
  0.126723
  0.126288
  0.125853
  0.125362
  0.124913
  0.124423
  0.123957
  0.123429
  0.122950
  0.122476
  0.121997
  0.121533
  0.121028
  0.120496
  0.120023
  0.119562
  0.119020
  0.118558
  0.118020
  0.117555
  0.117030
  0.116464
  0.116013
  0.115444
  0.114942
  0.114469
  0.114011
  0.113531
  0.112995
  0.112563
  0.112072
  0.111657
  0.111268
  0.110807
  0.110459
  0.110011
  0.109648
  0.109377
  0.109035
  0.108694
  0.108414
  0.108169
  0.107893
  0.107715
  0.107518
  0.107313
  0.107189
  0.107050
  0.106889
  0.106782
  0.106724
  0.106707
  0.106671
  0.106662
  0.106649
  0.106664
  0.106756
  0.106833
  0.106965
  0.107178
  0.107382
  0.107531
  0.107738
  0.107905
  0.108082
  0.108239
  0.108314
  0.108429
  0.108519
  0.108570
  0.108627
  0.108755
  0.108869
  0.108960
  0.109033
  0.109070
  0.109169
  0.109210
  0.109151
  0.109132
  0.109089
  0.108994
  0.108881
  0.108781
  0.108643
  0.108428
  0.108178
  0.107863
  0.107576
  0.107203
  0.106742
  0.106251
  0.105729
  0.105166
  0.104441
  0.103751
  0.103018
  0.102139
  0.101319
  0.100389
  0.099383
  0.098407
  0.097408
  0.096431
  0.095425
  0.094360
  0.093281
  0.092258
  0.091188
  0.090171
  0.089135
  0.088095
  0.087137
  0.086093
  0.085138
  0.084268
  0.083470
  0.082707
  0.081930
  0.081194
  0.080523
  0.079939
  0.079363
  0.078779
  0.078337
  0.077908
  0.077454
  0.077104
  0.076738
  0.076450
  0.076178
  0.075972
  0.075829
  0.075655
  0.075569
  0.075470
  0.075480
  0.075566
  0.075690
  0.075915
  0.076175
  0.076432
  0.076739
  0.077058
  0.077256
  0.077579
  0.077932
  0.078240
  0.078550
  0.078859
  0.079277
  0.079691
  0.080295
  0.081039
  0.081936
  0.083077
  0.084439
  0.086023
  0.087647
  0.089304
  0.091001
  0.092672
  0.094198
  0.095701
  0.097169
  0.098551
  0.099802
  0.100926
  0.101876
  0.102529
  0.102920
  0.102827
  0.102216
  0.101017
  0.099109
  0.096631
  0.093608
  0.090152
  0.086331
  0.082324
  0.078432
  0.074872
  0.071831
  0.069254
  0.067001
  0.065116
  0.063504
  0.062071
  0.060901
  0.059941
  0.059126
  0.058503
  0.057961
  0.057399
  0.057063
  0.056869
  0.056632
  0.056408
  0.056282
  0.056307
  0.056408
  0.056771
  0.057216
  0.057634
  0.058211
  0.058818
  0.059502
  0.060198
  0.060922
  0.061705
  0.062515
  0.063326
  0.064165
  0.064966
  0.065779
  0.066633
  0.067397
  0.068104
  0.068778
  0.069460
  0.070030
  0.070470
  0.070912
  0.071364
  0.071783
  0.072199
  0.072611
  0.073037
  0.073486
  0.074004
  0.074672
  0.075314
  0.076205
  0.077414
  0.078820
  0.080511
  0.082355
  0.084548
  0.086760
  0.088941
  0.091148
  0.093165
  0.095043
  0.096419
  0.097480
  0.098022
  0.097858
  0.097084
  0.095655
  0.093859
  0.091659
  0.089251
  0.086874
  0.084520
  0.082232
  0.080245
  0.078523
  0.077099
  0.076069
  0.075191
  0.074523
  0.074065
  0.073760
  0.073508
  0.073382
  0.073388
  0.073430
  0.073614
  0.073853
  0.074089
  0.074457
  0.075012
  0.075511
  0.076126
  0.076801
  0.077440
  0.078267
  0.079058
  0.079791
  0.080661
  0.081490
  0.082270
  0.082990
  0.083745
  0.084495
  0.085284
  0.085882
  0.086480
  0.087175
  0.087771
  0.088378
  0.088952
  0.089559
  0.090224
  0.090772
  0.091298
  0.091968
  0.092613
  0.093209
  0.093833
  0.094493
  0.095216
  0.095912
  0.096542
  0.097219
  0.097844
  0.098462
  0.099106
  0.099869
  0.100449
  0.101088
  0.101810
  0.102364
  0.103029
  0.103670
  0.104232
  0.104837
  0.105457
  0.106091
  0.106732
  0.107318
  0.107932
  0.108596
  0.109191
  0.109818
  0.110506
  0.111093
  0.111742
  0.112462
  0.113113
  0.113835
  0.114531
  0.115161
  0.115944
  0.116651
  0.117369
  0.118045
  0.118701
  0.119436
  0.120110
  0.120690
  0.121282
  0.121811
  0.122265
  0.122801
  0.123160
  0.123525
  0.123821
  0.124120
  0.124385
  0.124532
  0.124761
  0.124834
  0.124983
  0.125109
  0.125174
  0.125301
  0.125376
  0.125530
  0.125633
  0.125747
  0.125924
  0.126084
  0.126302
  0.126538
  0.126703
  0.126926
  0.127172
  0.127388
  0.127617
  0.127813
  0.128065
  0.128301
  0.128518
  0.128775
  0.129058
  0.129327
  0.129606
  0.129921
  0.130222
  0.130541
  0.130942
  0.131341
  0.131665
  0.132034
  0.132432
  0.132833
  0.133214
  0.133612
  0.133943
  0.134360
  0.134808
  0.135196
  0.135662
  0.136072
  0.136508
  0.136932
  0.137332
  0.137756
  0.138168
  0.138575
  0.138986
  0.139408
  0.139828
  0.140244
  0.140667
  0.141032
  0.141443
  0.141908
  0.142268
  0.142690
  0.143083
  0.143450
  0.143868
  0.144254
  0.144599
  0.144957
  0.145309
  0.145632
  0.146018
  0.146394
  0.146746
  0.147077
  0.147441
  0.147789
  0.148067
  0.148413
  0.148746
  0.149073
  0.149430
  0.149738
  0.149987
  0.150281
  0.150551
  0.150814
  0.151157
  0.151379
  0.151650
  0.151966
  0.152168
  0.152431
  0.152722
  0.153006
  0.153248
  0.153484
  0.153751
  0.154027
  0.154302
  0.154503
  0.154745
  0.155019
  0.155235
  0.155450
  0.155614
  0.155830
  0.156064
  0.156242
  0.156489
  0.156688
  0.156859
  0.157058
  0.157268
  0.157419
  0.157674
  0.157889
  0.158035
  0.158281
  0.158464
  0.158635
  0.158827
  0.159007
  0.159174
  0.159339
  0.159445
  0.159550
  0.159687
  0.159794
  0.159898
  0.160044
  0.160127
  0.160166
  0.160309
  0.160412
  0.160425
  0.160502
  0.160627
  0.160699
  0.160732
  0.160788
  0.160879
  0.161021
  0.161072
  0.161084
  0.161199
  0.161316
  0.161371
  0.161409
  0.161544
  0.161639
  0.161685
  0.161749
  0.161786
  0.161858
  0.161904
  0.161883
  0.161810
  0.161769
  0.161742
  0.161674
  0.161510
  0.161395
  0.161290
  0.161080
  0.160934
  0.160733
  0.160559
  0.160370
  0.160209
  0.160071
  0.159816
  0.159751
  0.159729
  0.159550
  0.159520
  0.159525
  0.159543
  0.159570
  0.159614
  0.159756
  0.159763
  0.159778
  0.159824
  0.159799
  0.159775
  0.159697
  0.159609
  0.159581
  0.159449
  0.159283
  0.159048
  0.158812
  0.158485
  0.158123
  0.157827
  0.157407
  0.156959
  0.156525
  0.156047
  0.155532
  0.155026
  0.154509
  0.154026
  0.153460
  0.152884
  0.152426
  0.151853
  0.151326
  0.150859
  0.150329
  0.149899
  0.149448
  0.148982
  0.148612
  0.148215
  0.147855
  0.147530
  0.147139
  0.146848
  0.146604
  0.146343
  0.146137
  0.145868
  0.145694
  0.145489
  0.145194
  0.145082
