TITLE="CnM2 at 87% radius for 1 revolution"
VARIABLES="CnM2"
ZONE I=  2048, J=   1, K=   1, F=BLOCK
  0.092936
  0.092553
  0.092154
  0.091714
  0.091408
  0.091034
  0.090673
  0.090295
  0.089926
  0.089599
  0.089246
  0.088884
  0.088544
  0.088163
  0.087793
  0.087435
  0.087021
  0.086667
  0.086200
  0.085780
  0.085352
  0.084879
  0.084478
  0.084058
  0.083616
  0.083167
  0.082773
  0.082368
  0.081957
  0.081536
  0.081181
  0.080782
  0.080376
  0.080049
  0.079671
  0.079369
  0.079089
  0.078769
  0.078479
  0.078281
  0.078143
  0.077965
  0.077785
  0.077671
  0.077735
  0.077849
  0.077888
  0.078033
  0.078196
  0.078421
  0.078680
  0.079027
  0.079489
  0.079820
  0.080092
  0.080451
  0.080781
  0.081042
  0.081436
  0.081683
  0.081883
  0.082084
  0.082215
  0.082445
  0.082488
  0.082464
  0.082558
  0.082553
  0.082445
  0.082438
  0.082351
  0.082270
  0.082233
  0.082126
  0.081959
  0.081837
  0.081770
  0.081614
  0.081490
  0.081385
  0.081205
  0.081039
  0.080988
  0.080805
  0.080614
  0.080461
  0.080294
  0.080184
  0.080032
  0.079956
  0.079828
  0.079735
  0.079604
  0.079429
  0.079349
  0.079159
  0.079019
  0.079050
  0.078878
  0.078698
  0.078558
  0.078404
  0.078248
  0.078032
  0.077856
  0.077628
  0.077403
  0.077134
  0.076866
  0.076645
  0.076338
  0.075970
  0.075658
  0.075269
  0.074897
  0.074551
  0.074054
  0.073733
  0.073369
  0.072923
  0.072530
  0.072170
  0.071925
  0.071622
  0.071533
  0.071537
  0.071527
  0.071759
  0.072035
  0.072305
  0.072692
  0.073178
  0.073660
  0.074103
  0.074634
  0.075298
  0.075932
  0.076585
  0.077197
  0.077738
  0.078321
  0.078895
  0.079424
  0.079861
  0.080362
  0.080741
  0.081102
  0.081410
  0.081539
  0.081716
  0.081819
  0.081856
  0.081879
  0.081847
  0.081748
  0.081655
  0.081435
  0.081341
  0.081301
  0.081045
  0.080776
  0.080551
  0.080350
  0.080191
  0.079964
  0.079657
  0.079319
  0.079028
  0.078758
  0.078340
  0.077958
  0.077638
  0.077268
  0.076885
  0.076553
  0.076153
  0.075770
  0.075427
  0.075016
  0.074550
  0.074044
  0.073702
  0.073240
  0.072726
  0.072213
  0.071773
  0.071344
  0.070817
  0.070488
  0.070271
  0.070141
  0.070110
  0.070326
  0.070757
  0.071350
  0.072034
  0.072870
  0.073805
  0.074861
  0.076037
  0.076951
  0.078057
  0.079061
  0.079927
  0.080731
  0.081401
  0.082099
  0.082579
  0.082993
  0.083294
  0.083493
  0.083560
  0.083569
  0.083586
  0.083508
  0.083394
  0.083164
  0.082802
  0.082559
  0.082122
  0.081669
  0.081289
  0.080896
  0.080515
  0.080002
  0.079711
  0.079223
  0.078833
  0.078489
  0.077964
  0.077617
  0.077099
  0.076587
  0.076136
  0.075525
  0.074901
  0.074289
  0.073643
  0.072907
  0.072250
  0.071549
  0.070764
  0.069921
  0.069040
  0.068413
  0.067625
  0.066833
  0.066036
  0.065233
  0.064744
  0.064252
  0.064067
  0.064139
  0.064422
  0.064983
  0.065901
  0.067134
  0.068286
  0.069742
  0.071441
  0.073081
  0.074813
  0.076460
  0.077902
  0.079272
  0.080482
  0.081448
  0.082304
  0.082928
  0.083312
  0.083608
  0.083671
  0.083609
  0.083555
  0.083234
  0.082992
  0.082626
  0.082079
  0.081756
  0.081234
  0.080642
  0.080102
  0.079455
  0.078827
  0.078195
  0.077397
  0.076570
  0.075913
  0.075123
  0.074315
  0.073533
  0.072599
  0.071831
  0.070973
  0.070130
  0.069369
  0.068573
  0.067856
  0.067175
  0.066512
  0.065847
  0.065496
  0.065245
  0.065095
  0.065118
  0.065270
  0.065682
  0.066142
  0.066814
  0.067924
  0.069120
  0.070312
  0.071639
  0.073140
  0.074619
  0.076159
  0.077797
  0.079274
  0.080770
  0.082227
  0.083535
  0.084680
  0.085775
  0.086758
  0.087456
  0.088031
  0.088394
  0.088582
  0.088834
  0.088940
  0.088878
  0.088835
  0.088761
  0.088639
  0.088508
  0.088353
  0.088274
  0.088004
  0.087567
  0.087336
  0.087034
  0.086674
  0.086403
  0.086200
  0.085993
  0.085788
  0.085474
  0.085295
  0.085237
  0.085060
  0.084980
  0.084973
  0.085053
  0.085140
  0.085362
  0.085631
  0.085788
  0.085973
  0.086288
  0.086557
  0.086815
  0.087203
  0.087558
  0.087929
  0.088421
  0.089029
  0.089632
  0.090273
  0.090915
  0.091564
  0.092237
  0.092909
  0.093586
  0.094217
  0.094858
  0.095460
  0.096055
  0.096492
  0.096962
  0.097449
  0.097862
  0.098263
  0.098639
  0.099059
  0.099377
  0.099744
  0.099893
  0.100141
  0.100332
  0.100427
  0.100657
  0.100594
  0.100788
  0.100836
  0.100868
  0.100966
  0.100951
  0.101084
  0.101088
  0.101013
  0.101142
  0.101123
  0.101106
  0.101197
  0.101100
  0.101036
  0.100945
  0.100816
  0.100733
  0.100580
  0.100397
  0.099989
  0.099763
  0.099584
  0.099462
  0.099478
  0.099473
  0.099585
  0.099564
  0.099650
  0.099707
  0.099841
  0.099916
  0.100026
  0.100249
  0.100266
  0.100477
  0.100657
  0.100836
  0.100942
  0.100960
  0.101013
  0.101052
  0.101052
  0.100979
  0.101098
  0.101122
  0.101023
  0.101021
  0.100982
  0.100925
  0.100837
  0.100670
  0.100445
  0.100253
  0.100141
  0.100012
  0.099910
  0.099780
  0.099591
  0.099499
  0.099323
  0.099037
  0.098805
  0.098681
  0.098597
  0.098517
  0.098310
  0.098149
  0.098021
  0.097838
  0.097726
  0.097465
  0.097385
  0.097288
  0.097138
  0.096973
  0.096856
  0.096859
  0.096673
  0.096616
  0.096696
  0.096828
  0.096716
  0.096641
  0.096646
  0.096636
  0.096732
  0.096596
  0.096654
  0.096685
  0.096632
  0.096824
  0.096880
  0.096951
  0.097104
  0.097208
  0.097281
  0.097470
  0.097662
  0.097772
  0.097913
  0.097996
  0.098127
  0.098214
  0.098384
  0.098580
  0.098667
  0.098885
  0.099106
  0.099275
  0.099416
  0.099470
  0.099572
  0.099612
  0.099743
  0.099922
  0.099955
  0.100081
  0.100196
  0.100309
  0.100310
  0.100321
  0.100422
  0.100508
  0.100603
  0.100576
  0.100547
  0.100531
  0.100624
  0.100649
  0.100644
  0.100559
  0.100480
  0.100570
  0.100497
  0.100462
  0.100376
  0.100349
  0.100360
  0.100374
  0.100318
  0.100192
  0.100193
  0.100065
  0.100076
  0.099992
  0.099953
  0.099984
  0.099853
  0.099944
  0.099870
  0.099765
  0.099807
  0.099704
  0.099635
  0.099698
  0.099663
  0.099629
  0.099581
  0.099543
  0.099597
  0.099589
  0.099584
  0.099640
  0.099618
  0.099529
  0.099570
  0.099594
  0.099535
  0.099450
  0.099492
  0.099474
  0.099389
  0.099344
  0.099288
  0.099206
  0.099151
  0.099132
  0.099129
  0.099033
  0.098958
  0.098923
  0.098776
  0.098769
  0.098608
  0.098566
  0.098592
  0.098471
  0.098444
  0.098394
  0.098357
  0.098339
  0.098280
  0.098258
  0.098313
  0.098157
  0.098182
  0.098337
  0.098233
  0.098133
  0.098208
  0.098269
  0.098186
  0.098208
  0.098271
  0.098317
  0.098292
  0.098336
  0.098277
  0.098258
  0.098316
  0.098334
  0.098385
  0.098258
  0.098314
  0.098334
  0.098322
  0.098298
  0.098303
  0.098295
  0.098235
  0.098301
  0.098241
  0.098203
  0.098302
  0.098259
  0.098182
  0.098195
  0.098102
  0.098105
  0.098022
  0.097959
  0.097947
  0.097790
  0.097681
  0.097525
  0.097456
  0.097368
  0.097164
  0.097085
  0.096937
  0.096709
  0.096648
  0.096553
  0.096416
  0.096235
  0.096134
  0.095997
  0.095757
  0.095639
  0.095597
  0.095513
  0.095337
  0.095274
  0.095178
  0.095056
  0.094948
  0.094859
  0.094749
  0.094568
  0.094588
  0.094523
  0.094405
  0.094332
  0.094145
  0.094037
  0.093892
  0.093871
  0.093720
  0.093525
  0.093467
  0.093261
  0.093133
  0.093044
  0.092946
  0.092763
  0.092617
  0.092358
  0.092190
  0.092015
  0.091776
  0.091629
  0.091296
  0.091257
  0.091165
  0.090919
  0.090629
  0.090327
  0.090218
  0.090072
  0.089910
  0.089672
  0.089539
  0.089290
  0.089001
  0.088861
  0.088573
  0.088368
  0.088144
  0.087982
  0.087880
  0.087612
  0.087362
  0.087080
  0.086945
  0.086796
  0.086516
  0.086397
  0.086063
  0.085830
  0.085719
  0.085415
  0.085307
  0.085125
  0.084962
  0.084798
  0.084487
  0.084326
  0.084151
  0.083879
  0.083642
  0.083526
  0.083353
  0.083119
  0.083060
  0.082822
  0.082561
  0.082493
  0.082367
  0.082198
  0.081921
  0.081756
  0.081558
  0.081244
  0.080977
  0.080854
  0.080619
  0.080370
  0.080458
  0.080179
  0.079799
  0.079626
  0.079380
  0.079162
  0.078966
  0.078688
  0.078352
  0.078160
  0.077794
  0.077525
  0.077308
  0.077176
  0.076812
  0.076406
  0.076350
  0.075971
  0.075820
  0.075538
  0.075205
  0.075033
  0.074695
  0.074530
  0.074362
  0.074110
  0.073758
  0.073438
  0.073321
  0.073064
  0.072913
  0.072788
  0.072423
  0.072215
  0.072003
  0.071869
  0.071647
  0.071347
  0.071200
  0.070982
  0.070676
  0.070399
  0.070323
  0.070142
  0.069842
  0.069635
  0.069488
  0.069314
  0.069056
  0.068945
  0.068810
  0.068562
  0.068288
  0.068135
  0.067986
  0.067743
  0.067484
  0.067203
  0.067188
  0.067045
  0.066635
  0.066405
  0.066257
  0.066196
  0.065964
  0.065578
  0.065547
  0.065342
  0.064927
  0.064777
  0.064658
  0.064476
  0.064263
  0.064140
  0.063965
  0.063735
  0.063653
  0.063438
  0.063087
  0.062934
  0.062816
  0.062718
  0.062575
  0.062340
  0.062308
  0.062073
  0.061843
  0.061804
  0.061663
  0.061543
  0.061440
  0.061422
  0.061233
  0.061092
  0.060965
  0.060767
  0.060726
  0.060527
  0.060645
  0.060614
  0.060207
  0.060125
  0.060066
  0.060013
  0.060041
  0.059991
  0.059922
  0.059824
  0.059666
  0.059565
  0.059504
  0.059403
  0.059285
  0.059257
  0.059228
  0.059171
  0.059066
  0.058921
  0.058973
  0.059016
  0.058882
  0.058715
  0.058822
  0.058860
  0.058628
  0.058745
  0.058678
  0.058504
  0.058471
  0.058336
  0.058400
  0.058277
  0.058231
  0.058094
  0.058049
  0.058362
  0.058114
  0.057911
  0.057949
  0.057968
  0.057818
  0.057725
  0.057690
  0.057481
  0.057668
  0.057661
  0.057436
  0.057450
  0.057500
  0.057396
  0.057369
  0.057308
  0.057170
  0.057308
  0.057318
  0.057254
  0.057222
  0.057256
  0.057314
  0.057281
  0.057349
  0.057306
  0.057385
  0.057536
  0.057391
  0.057445
  0.057366
  0.057434
  0.057657
  0.057474
  0.057640
  0.057748
  0.057633
  0.057712
  0.057801
  0.057757
  0.057650
  0.057684
  0.057844
  0.057924
  0.057905
  0.057804
  0.057772
  0.057943
  0.058023
  0.057910
  0.058003
  0.058097
  0.058079
  0.058202
  0.058157
  0.058245
  0.058292
  0.058426
  0.058568
  0.058377
  0.058378
  0.058597
  0.058771
  0.058721
  0.058611
  0.058709
  0.059021
  0.058977
  0.058947
  0.059120
  0.059232
  0.059278
  0.059247
  0.059349
  0.059524
  0.059683
  0.059481
  0.059723
  0.059982
  0.059866
  0.060076
  0.060209
  0.060343
  0.060366
  0.060399
  0.060612
  0.060772
  0.060810
  0.060907
  0.061054
  0.061076
  0.061217
  0.061184
  0.061186
  0.061479
  0.061500
  0.061581
  0.061598
  0.061795
  0.061890
  0.062065
  0.062327
  0.062052
  0.062372
  0.062447
  0.062540
  0.062727
  0.062729
  0.062889
  0.062913
  0.063299
  0.063509
  0.063560
  0.063773
  0.063885
  0.063881
  0.064041
  0.064360
  0.064598
  0.064638
  0.064815
  0.065016
  0.065106
  0.065258
  0.065426
  0.065569
  0.065648
  0.065831
  0.065887
  0.066130
  0.066253
  0.066406
  0.066646
  0.066654
  0.066859
  0.066908
  0.067108
  0.067260
  0.067317
  0.067539
  0.067664
  0.067851
  0.067918
  0.068016
  0.068117
  0.068279
  0.068511
  0.068594
  0.068684
  0.068853
  0.069045
  0.068939
  0.069085
  0.069281
  0.069241
  0.069451
  0.069658
  0.069673
  0.069788
  0.069998
  0.070014
  0.070178
  0.070247
  0.070327
  0.070533
  0.070680
  0.070908
  0.071101
  0.071133
  0.071154
  0.071555
  0.071725
  0.071812
  0.071932
  0.072083
  0.072472
  0.072518
  0.072693
  0.072749
  0.072836
  0.073144
  0.073265
  0.073499
  0.073581
  0.073824
  0.074069
  0.074176
  0.074403
  0.074519
  0.074696
  0.074818
  0.074935
  0.075110
  0.075293
  0.075420
  0.075555
  0.075778
  0.075826
  0.075994
  0.076102
  0.076201
  0.076425
  0.076391
  0.076546
  0.076724
  0.076870
  0.076974
  0.077012
  0.077216
  0.077366
  0.077563
  0.077473
  0.077539
  0.077667
  0.077727
  0.077859
  0.077925
  0.078158
  0.078268
  0.078328
  0.078335
  0.078448
  0.078674
  0.078795
  0.078853
  0.079063
  0.079151
  0.079204
  0.079323
  0.079505
  0.079702
  0.079736
  0.079943
  0.080094
  0.080191
  0.080254
  0.080488
  0.080482
  0.080659
  0.080929
  0.080909
  0.081191
  0.081281
  0.081385
  0.081400
  0.081549
  0.081800
  0.081867
  0.081907
  0.081998
  0.082140
  0.082169
  0.082327
  0.082517
  0.082538
  0.082577
  0.082725
  0.082818
  0.082983
  0.083077
  0.083168
  0.083206
  0.083263
  0.083440
  0.083504
  0.083588
  0.083796
  0.083882
  0.083878
  0.083980
  0.084072
  0.084251
  0.084271
  0.084309
  0.084392
  0.084467
  0.084583
  0.084588
  0.084795
  0.084934
  0.084883
  0.085065
  0.085246
  0.085451
  0.085500
  0.085556
  0.085749
  0.085745
  0.085878
  0.085986
  0.086180
  0.086313
  0.086334
  0.086383
  0.086562
  0.086654
  0.086619
  0.086849
  0.086905
  0.087089
  0.087116
  0.087150
  0.087351
  0.087441
  0.087709
  0.087639
  0.087636
  0.087817
  0.088054
  0.088190
  0.088203
  0.088279
  0.088200
  0.088439
  0.088514
  0.088567
  0.088746
  0.088866
  0.089079
  0.089151
  0.089282
  0.089447
  0.089707
  0.089677
  0.089819
  0.089894
  0.090000
  0.090243
  0.090241
  0.090403
  0.090298
  0.090567
  0.090770
  0.090835
  0.091008
  0.090999
  0.091299
  0.091373
  0.091479
  0.091738
  0.091896
  0.091941
  0.091935
  0.092340
  0.092661
  0.092659
  0.092715
  0.092796
  0.092994
  0.093128
  0.093216
  0.093372
  0.093527
  0.093715
  0.093750
  0.093983
  0.094227
  0.094260
  0.094423
  0.094548
  0.094730
  0.094868
  0.094929
  0.095143
  0.095359
  0.095629
  0.095557
  0.095541
  0.095668
  0.095862
  0.096135
  0.096063
  0.096224
  0.096304
  0.096330
  0.096489
  0.096624
  0.096688
  0.096625
  0.096671
  0.096772
  0.096995
  0.097074
  0.097032
  0.097140
  0.097330
  0.097502
  0.097426
  0.097483
  0.097594
  0.097530
  0.097735
  0.097897
  0.098140
  0.098426
  0.098385
  0.098448
  0.098719
  0.098805
  0.098748
  0.098875
  0.098939
  0.099207
  0.099416
  0.099561
  0.099775
  0.099814
  0.100101
  0.100165
  0.100204
  0.100359
  0.100532
  0.100697
  0.100691
  0.100751
  0.100860
  0.101158
  0.101279
  0.101430
  0.101629
  0.101559
  0.101732
  0.101943
  0.101980
  0.102174
  0.102398
  0.102456
  0.102492
  0.102675
  0.102863
  0.102984
  0.103170
  0.103288
  0.103405
  0.103532
  0.103755
  0.103981
  0.104050
  0.104194
  0.104416
  0.104641
  0.104645
  0.104809
  0.105059
  0.105113
  0.105411
  0.105677
  0.105737
  0.105890
  0.106099
  0.106194
  0.106383
  0.106643
  0.106829
  0.106986
  0.107069
  0.107194
  0.107393
  0.107646
  0.107837
  0.107928
  0.108099
  0.108253
  0.108366
  0.108644
  0.108898
  0.109047
  0.109201
  0.109304
  0.109441
  0.109622
  0.109808
  0.110053
  0.110232
  0.110315
  0.110522
  0.110835
  0.111081
  0.111103
  0.111270
  0.111506
  0.111612
  0.111859
  0.112105
  0.112214
  0.112325
  0.112549
  0.112645
  0.112889
  0.113106
  0.113263
  0.113404
  0.113452
  0.113734
  0.113867
  0.113990
  0.114160
  0.114291
  0.114445
  0.114523
  0.114685
  0.114907
  0.115025
  0.115080
  0.115285
  0.115503
  0.115633
  0.115772
  0.115988
  0.116221
  0.116283
  0.116434
  0.116631
  0.116691
  0.116812
  0.117018
  0.117140
  0.117247
  0.117345
  0.117420
  0.117618
  0.117807
  0.117876
  0.117914
  0.118115
  0.118317
  0.118466
  0.118596
  0.118627
  0.118665
  0.118753
  0.118886
  0.118966
  0.118993
  0.118978
  0.119033
  0.119121
  0.119179
  0.119274
  0.119394
  0.119474
  0.119530
  0.119672
  0.119778
  0.119742
  0.119740
  0.119715
  0.119682
  0.119668
  0.119666
  0.119718
  0.119684
  0.119805
  0.120000
  0.120111
  0.120207
  0.120318
  0.120449
  0.120499
  0.120510
  0.120483
  0.120435
  0.120405
  0.120437
  0.120446
  0.120442
  0.120473
  0.120491
  0.120568
  0.120608
  0.120610
  0.120570
  0.120497
  0.120542
  0.120532
  0.120483
  0.120494
  0.120482
  0.120452
  0.120448
  0.120363
  0.120304
  0.120292
  0.120244
  0.120273
  0.120213
  0.120201
  0.120177
  0.120118
  0.120135
  0.120025
  0.119916
  0.119823
  0.119760
  0.119669
  0.119558
  0.119539
  0.119400
  0.119268
  0.119154
  0.118938
  0.118799
  0.118675
  0.118556
  0.118406
  0.118313
  0.118225
  0.118097
  0.117998
  0.117795
  0.117634
  0.117441
  0.117196
  0.116962
  0.116764
  0.116619
  0.116578
  0.116308
  0.115970
  0.115849
  0.115633
  0.115514
  0.115280
  0.115114
  0.114961
  0.114803
  0.114699
  0.114463
  0.114209
  0.113947
  0.113767
  0.113451
  0.113267
  0.112960
  0.112664
  0.112489
  0.112204
  0.112043
  0.111782
  0.111573
  0.111364
  0.111112
  0.110992
  0.110791
  0.110560
  0.110504
  0.110348
  0.110183
  0.110080
  0.109887
  0.109756
  0.109625
  0.109551
  0.109523
  0.109555
  0.109587
  0.109524
  0.109589
  0.109609
  0.109633
  0.109744
  0.109789
  0.109858
  0.109933
  0.110096
  0.110199
  0.110295
  0.110461
  0.110609
  0.110786
  0.110959
  0.111140
  0.111275
  0.111479
  0.111686
  0.111840
  0.112044
  0.112253
  0.112435
  0.112644
  0.112921
  0.113014
  0.113169
  0.113467
  0.113613
  0.113806
  0.113891
  0.113921
  0.114005
  0.114150
  0.114245
  0.114196
  0.114208
  0.114179
  0.114121
  0.114049
  0.113947
  0.113804
  0.113691
  0.113541
  0.113340
  0.113136
  0.112801
  0.112550
  0.112375
  0.112115
  0.111802
  0.111427
  0.111133
  0.110804
  0.110425
  0.110036
  0.109649
  0.109277
  0.108762
  0.108317
  0.107860
  0.107373
  0.106909
  0.106357
  0.105829
  0.105382
  0.104922
  0.104436
  0.104009
  0.103540
  0.103087
  0.102627
  0.102213
  0.101853
  0.101473
  0.101092
  0.100759
  0.100444
  0.100128
  0.099903
  0.099579
  0.099326
  0.099087
  0.098868
  0.098722
  0.098510
  0.098379
  0.098183
  0.098073
  0.098017
  0.097884
  0.097897
  0.097907
  0.097918
  0.098027
  0.098213
  0.098446
  0.098633
  0.098943
  0.099298
  0.099657
  0.100123
  0.100598
  0.101011
  0.101454
  0.101979
  0.102428
  0.102783
  0.103057
  0.103324
  0.103485
  0.103624
  0.103770
  0.103884
  0.104114
  0.104308
  0.104515
  0.104728
  0.105024
  0.105312
  0.105642
  0.106008
  0.106354
  0.106821
  0.107181
  0.107536
  0.107922
  0.108201
  0.108406
  0.108472
  0.108404
  0.108225
  0.107733
  0.107080
  0.106256
  0.105179
  0.103887
  0.102332
  0.100635
  0.098891
  0.097156
  0.095365
  0.093549
  0.091791
  0.090190
  0.088799
  0.087592
  0.086537
  0.085602
  0.084791
  0.084139
  0.083554
  0.082998
  0.082558
  0.082240
  0.081990
  0.081718
  0.081635
  0.081622
  0.081611
  0.081724
  0.081714
  0.081829
  0.082066
  0.082236
  0.082430
  0.082708
  0.083033
  0.083440
  0.083975
  0.084499
  0.085085
  0.085711
  0.086344
  0.086951
  0.087620
  0.088328
  0.089016
  0.089836
  0.090642
  0.091393
  0.092121
  0.092847
  0.093550
  0.094222
  0.094846
  0.095366
  0.095833
  0.096225
  0.096635
  0.097095
  0.097502
  0.098046
  0.098770
  0.099621
  0.100674
  0.101774
  0.102975
  0.104195
  0.105271
  0.106311
  0.107241
  0.107927
  0.108419
  0.108561
  0.108276
  0.107577
  0.106215
  0.104143
  0.101219
  0.097700
  0.093960
  0.090052
  0.086451
  0.083221
  0.080332
  0.077888
  0.076035
  0.074778
  0.073788
  0.073108
  0.072718
  0.072429
  0.072241
  0.072429
  0.072741
  0.072867
  0.073017
  0.073082
  0.073223
  0.073558
  0.074060
  0.074787
  0.075494
  0.076149
  0.076679
  0.077190
  0.077841
  0.078405
  0.079103
  0.079862
  0.080689
  0.081379
  0.081914
  0.082547
  0.083129
  0.083680
  0.084159
  0.084677
  0.085168
  0.085590
  0.086034
  0.086415
  0.086803
  0.087267
  0.087676
  0.088075
  0.088484
  0.088802
  0.089317
  0.089827
  0.090178
  0.090540
  0.090981
  0.091381
  0.091831
  0.092301
  0.092700
  0.093206
  0.093663
  0.094061
  0.094607
  0.095192
  0.095637
  0.096177
  0.096728
  0.097300
  0.097894
  0.098355
  0.098977
  0.099597
  0.100091
  0.100612
  0.101098
  0.101562
  0.102063
  0.102442
  0.102785
  0.103207
  0.103515
  0.103875
  0.104193
  0.104434
  0.104699
  0.104814
  0.104859
  0.104859
  0.104715
  0.104493
  0.104186
  0.103741
  0.103171
  0.102592
  0.101903
  0.101036
  0.100123
  0.099206
  0.098168
  0.097102
  0.096024
  0.094917
  0.093959
  0.093037
  0.092162
  0.091372
  0.090652
  0.090003
  0.089561
  0.089223
  0.088771
  0.088503
  0.088338
  0.088082
  0.087990
  0.087955
  0.087958
  0.087970
  0.088087
  0.088273
  0.088389
  0.088605
  0.088862
  0.089194
  0.089546
  0.089812
  0.090142
  0.090423
  0.090621
  0.090962
  0.091371
  0.091765
  0.092222
  0.092685
  0.093103
  0.093508
  0.093893
  0.094272
  0.094660
  0.095032
  0.095446
  0.095768
  0.096098
  0.096457
  0.096731
  0.097122
  0.097434
  0.097700
  0.098004
  0.098258
  0.098682
  0.098918
  0.099179
  0.099564
  0.099791
  0.100041
  0.100349
  0.100642
  0.100888
  0.101187
  0.101412
  0.101668
  0.101929
  0.102143
  0.102429
  0.102653
  0.102896
  0.103203
  0.103406
  0.103649
  0.103913
  0.104186
  0.104458
  0.104686
  0.104943
  0.105187
  0.105383
  0.105602
  0.105874
  0.106110
  0.106346
  0.106510
  0.106798
  0.106998
  0.107213
  0.107454
  0.107620
  0.107962
  0.108144
  0.108346
  0.108563
  0.108767
  0.108985
  0.109145
  0.109311
  0.109476
  0.109672
  0.109816
  0.110029
  0.110156
  0.110253
  0.110405
  0.110482
  0.110591
  0.110720
  0.110825
  0.110856
  0.110858
  0.110975
  0.111066
  0.111085
  0.111221
  0.111256
  0.111207
  0.111230
  0.111229
  0.111211
  0.111183
  0.111108
  0.110981
  0.110810
  0.110685
  0.110596
  0.110486
  0.110326
  0.110099
  0.110004
  0.109825
  0.109636
  0.109575
  0.109454
  0.109394
  0.109362
  0.109356
  0.109360
  0.109418
  0.109514
  0.109549
  0.109642
  0.109746
  0.109804
  0.109952
  0.110103
  0.110226
  0.110399
  0.110540
  0.110590
  0.110584
  0.110493
  0.110397
  0.110360
  0.110243
  0.110090
  0.109965
  0.109761
  0.109596
  0.109392
  0.109102
  0.108821
  0.108618
  0.108381
  0.108059
  0.107828
  0.107553
  0.107219
  0.106972
  0.106757
  0.106446
  0.106268
  0.106059
  0.105752
  0.105531
  0.105394
  0.105222
  0.105089
  0.104962
  0.104727
  0.104610
  0.104511
  0.104350
  0.104177
  0.104067
  0.103871
  0.103649
  0.103475
  0.103308
  0.103079
  0.102862
  0.102609
  0.102290
  0.102055
  0.101757
  0.101502
  0.101257
  0.100970
  0.100726
  0.100424
  0.100225
  0.099928
  0.099572
  0.099381
  0.099042
  0.098725
  0.098369
  0.097976
  0.097741
  0.097425
  0.096995
  0.096704
  0.096445
  0.096008
  0.095638
  0.095300
  0.094816
  0.094515
  0.094242
  0.093679
  0.093353
