TITLE="CnM2 at 87% radius for 1 revolution"
VARIABLES="CnM2"
ZONE I=  2048, J=   1, K=   1, F=BLOCK
  0.061633
  0.061286
  0.060924
  0.060559
  0.060203
  0.059841
  0.059454
  0.059130
  0.058841
  0.058433
  0.058038
  0.057718
  0.057406
  0.057012
  0.056643
  0.056327
  0.055969
  0.055589
  0.055272
  0.054864
  0.054442
  0.054112
  0.053680
  0.053295
  0.052973
  0.052634
  0.052319
  0.051993
  0.051659
  0.051287
  0.050930
  0.050640
  0.050339
  0.050112
  0.049892
  0.049624
  0.049350
  0.049087
  0.048825
  0.048546
  0.048302
  0.048038
  0.047743
  0.047457
  0.047187
  0.046894
  0.046671
  0.046440
  0.046230
  0.046036
  0.045828
  0.045628
  0.045454
  0.045245
  0.045092
  0.044957
  0.044749
  0.044552
  0.044338
  0.044186
  0.043978
  0.043784
  0.043709
  0.043566
  0.043420
  0.043357
  0.043158
  0.042974
  0.042929
  0.042808
  0.042640
  0.042565
  0.042465
  0.042301
  0.042194
  0.042073
  0.041892
  0.041744
  0.041649
  0.041459
  0.041296
  0.041216
  0.041051
  0.040898
  0.040740
  0.040556
  0.040332
  0.040215
  0.040099
  0.039894
  0.039751
  0.039537
  0.039389
  0.039130
  0.038941
  0.038824
  0.038557
  0.038371
  0.038171
  0.037895
  0.037677
  0.037388
  0.037072
  0.036847
  0.036639
  0.036448
  0.036327
  0.036348
  0.036501
  0.036789
  0.037231
  0.037965
  0.038752
  0.039634
  0.040688
  0.041710
  0.042718
  0.043805
  0.044859
  0.045827
  0.046795
  0.047723
  0.048585
  0.049430
  0.050205
  0.051057
  0.051837
  0.052496
  0.053192
  0.053813
  0.054444
  0.055007
  0.055593
  0.056161
  0.056580
  0.056957
  0.057228
  0.057311
  0.057103
  0.056580
  0.055760
  0.054901
  0.054028
  0.053153
  0.052375
  0.051750
  0.051256
  0.050763
  0.050368
  0.050048
  0.049817
  0.049550
  0.049186
  0.048889
  0.048568
  0.048266
  0.047869
  0.047422
  0.047058
  0.046671
  0.046369
  0.046117
  0.046046
  0.046078
  0.046223
  0.046636
  0.047340
  0.048500
  0.050049
  0.051875
  0.053962
  0.056136
  0.058339
  0.060604
  0.062836
  0.064845
  0.066762
  0.068509
  0.069929
  0.071218
  0.072254
  0.073142
  0.073906
  0.074556
  0.075140
  0.075659
  0.076193
  0.076705
  0.077164
  0.077589
  0.077805
  0.077984
  0.078122
  0.077940
  0.077717
  0.077303
  0.076733
  0.076028
  0.075176
  0.074209
  0.073199
  0.072275
  0.071145
  0.070092
  0.069162
  0.068253
  0.067468
  0.066641
  0.065942
  0.065355
  0.064949
  0.064654
  0.064577
  0.064863
  0.065328
  0.066098
  0.067074
  0.068312
  0.069808
  0.071475
  0.073349
  0.075446
  0.077649
  0.079806
  0.082087
  0.084404
  0.086542
  0.088699
  0.090870
  0.092859
  0.094705
  0.096452
  0.097912
  0.099118
  0.100316
  0.101280
  0.102018
  0.102710
  0.103248
  0.103649
  0.103917
  0.104055
  0.104070
  0.104017
  0.103870
  0.103647
  0.103369
  0.102933
  0.102496
  0.102060
  0.101559
  0.101000
  0.100422
  0.099795
  0.099273
  0.098831
  0.098347
  0.098088
  0.097964
  0.097937
  0.098330
  0.099022
  0.099956
  0.101298
  0.102920
  0.104643
  0.106496
  0.108487
  0.110331
  0.111999
  0.113675
  0.115336
  0.116969
  0.118639
  0.120289
  0.122127
  0.124046
  0.126045
  0.128067
  0.130041
  0.131795
  0.133332
  0.134719
  0.135803
  0.136699
  0.137285
  0.137788
  0.138143
  0.138351
  0.138506
  0.138462
  0.138395
  0.138247
  0.138026
  0.137728
  0.137349
  0.136857
  0.136194
  0.135622
  0.135000
  0.134119
  0.133266
  0.132367
  0.131277
  0.130188
  0.129024
  0.127771
  0.126540
  0.125314
  0.124186
  0.123360
  0.122748
  0.122353
  0.122226
  0.122359
  0.122754
  0.123318
  0.124065
  0.125169
  0.126514
  0.127851
  0.129411
  0.131077
  0.132884
  0.134921
  0.137124
  0.139713
  0.142287
  0.144831
  0.147380
  0.149526
  0.151164
  0.152544
  0.153773
  0.154490
  0.155039
  0.155321
  0.155391
  0.155463
  0.155303
  0.155298
  0.155130
  0.155048
  0.155102
  0.155135
  0.155429
  0.155722
  0.156209
  0.156671
  0.157260
  0.157893
  0.158356
  0.158769
  0.158973
  0.159160
  0.159266
  0.159400
  0.159175
  0.158780
  0.158588
  0.158172
  0.157777
  0.157328
  0.156864
  0.156322
  0.155746
  0.155418
  0.155043
  0.154625
  0.154411
  0.154368
  0.154493
  0.154619
  0.154920
  0.155469
  0.156073
  0.156837
  0.157606
  0.158546
  0.159513
  0.160542
  0.161550
  0.162531
  0.163530
  0.164303
  0.165171
  0.165806
  0.166182
  0.166603
  0.166765
  0.166878
  0.166989
  0.167049
  0.167041
  0.167126
  0.167237
  0.167378
  0.167644
  0.167770
  0.167889
  0.167975
  0.168147
  0.168403
  0.168543
  0.168600
  0.168659
  0.168763
  0.168802
  0.168792
  0.168722
  0.168760
  0.168758
  0.168765
  0.168777
  0.168921
  0.168981
  0.168969
  0.169184
  0.169293
  0.169378
  0.169575
  0.169802
  0.169967
  0.170183
  0.170389
  0.170567
  0.170599
  0.170751
  0.171096
  0.171340
  0.171525
  0.171691
  0.172100
  0.172424
  0.172506
  0.172750
  0.172966
  0.173171
  0.173525
  0.173707
  0.173800
  0.174063
  0.174255
  0.174436
  0.174627
  0.174633
  0.174769
  0.174823
  0.174862
  0.175031
  0.175161
  0.175395
  0.175421
  0.175484
  0.175470
  0.175354
  0.175309
  0.174998
  0.174916
  0.174876
  0.174664
  0.174441
  0.174317
  0.174171
  0.173907
  0.173843
  0.173628
  0.173353
  0.173194
  0.173080
  0.172882
  0.172581
  0.172395
  0.172173
  0.171927
  0.171646
  0.171490
  0.171414
  0.171231
  0.171093
  0.170838
  0.170641
  0.170515
  0.170410
  0.170334
  0.170216
  0.170056
  0.169888
  0.169753
  0.169576
  0.169479
  0.169405
  0.169386
  0.169287
  0.169132
  0.169043
  0.168964
  0.168746
  0.168651
  0.168640
  0.168433
  0.168312
  0.168151
  0.168041
  0.167895
  0.167694
  0.167443
  0.167213
  0.167067
  0.166824
  0.166617
  0.166385
  0.166152
  0.165864
  0.165566
  0.165297
  0.165022
  0.164706
  0.164424
  0.164210
  0.163890
  0.163510
  0.163184
  0.162891
  0.162653
  0.162279
  0.161866
  0.161580
  0.161163
  0.160798
  0.160562
  0.160186
  0.159776
  0.159393
  0.159013
  0.158615
  0.158218
  0.157871
  0.157360
  0.156950
  0.156543
  0.156011
  0.155556
  0.155047
  0.154545
  0.154018
  0.153492
  0.152917
  0.152339
  0.151786
  0.151210
  0.150599
  0.149989
  0.149403
  0.148767
  0.148119
  0.147506
  0.146945
  0.146281
  0.145681
  0.145076
  0.144440
  0.143805
  0.143131
  0.142473
  0.141757
  0.141047
  0.140363
  0.139758
  0.139027
  0.138213
  0.137599
  0.136928
  0.136129
  0.135483
  0.134831
  0.134073
  0.133445
  0.132818
  0.132066
  0.131350
  0.130661
  0.129905
  0.129166
  0.128463
  0.127726
  0.127105
  0.126370
  0.125498
  0.124682
  0.123898
  0.123260
  0.122424
  0.121471
  0.120720
  0.119839
  0.119093
  0.118290
  0.117406
  0.116586
  0.115595
  0.114866
  0.113927
  0.112988
  0.112251
  0.111403
  0.110590
  0.109796
  0.109004
  0.108167
  0.107411
  0.106450
  0.105560
  0.104783
  0.103912
  0.103059
  0.102225
  0.101414
  0.100605
  0.099841
  0.098958
  0.098125
  0.097231
  0.096366
  0.095606
  0.094749
  0.093942
  0.093030
  0.092227
  0.091480
  0.090611
  0.089750
  0.088800
  0.087960
  0.087140
  0.086291
  0.085454
  0.084537
  0.083641
  0.082798
  0.081951
  0.081041
  0.080145
  0.079206
  0.078298
  0.077403
  0.076515
  0.075590
  0.074697
  0.073786
  0.072800
  0.071928
  0.070924
  0.069941
  0.069054
  0.068140
  0.067235
  0.066307
  0.065366
  0.064478
  0.063530
  0.062543
  0.061552
  0.060565
  0.059674
  0.058763
  0.057906
  0.057019
  0.056168
  0.055239
  0.054365
  0.053589
  0.052718
  0.051961
  0.051121
  0.050400
  0.049612
  0.048774
  0.048107
  0.047342
  0.046604
  0.045902
  0.045157
  0.044372
  0.043597
  0.042826
  0.042106
  0.041319
  0.040516
  0.039746
  0.038989
  0.038242
  0.037451
  0.036659
  0.035855
  0.035137
  0.034432
  0.033654
  0.032947
  0.032245
  0.031575
  0.030908
  0.030194
  0.029580
  0.028906
  0.028286
  0.027738
  0.027128
  0.026531
  0.025966
  0.025387
  0.024844
  0.024343
  0.023716
  0.023134
  0.022624
  0.022149
  0.021644
  0.021131
  0.020637
  0.020079
  0.019536
  0.019094
  0.018557
  0.017995
  0.017563
  0.016989
  0.016510
  0.015995
  0.015500
  0.015077
  0.014650
  0.014192
  0.013696
  0.013314
  0.012836
  0.012371
  0.011947
  0.011533
  0.011073
  0.010648
  0.010185
  0.009681
  0.009338
  0.008898
  0.008444
  0.008018
  0.007628
  0.007296
  0.006926
  0.006546
  0.006117
  0.005914
  0.005634
  0.005116
  0.004923
  0.004597
  0.004210
  0.003970
  0.003659
  0.003516
  0.003246
  0.002933
  0.002749
  0.002527
  0.002286
  0.002030
  0.001886
  0.001782
  0.001554
  0.001395
  0.001365
  0.001155
  0.001031
  0.000994
  0.000834
  0.000708
  0.000531
  0.000491
  0.000511
  0.000382
  0.000378
  0.000336
  0.000183
  0.000182
  0.000166
  0.000099
  0.000105
  0.000113
  0.000042
  0.000153
  0.000222
  0.000175
  0.000245
  0.000247
  0.000358
  0.000455
  0.000536
  0.000580
  0.000638
  0.000710
  0.000845
  0.000934
  0.000945
  0.001185
  0.001322
  0.001467
  0.001565
  0.001688
  0.001812
  0.001941
  0.002101
  0.002251
  0.002417
  0.002507
  0.002713
  0.002901
  0.003132
  0.003296
  0.003486
  0.003728
  0.003880
  0.004142
  0.004385
  0.004607
  0.004822
  0.005129
  0.005463
  0.005653
  0.005929
  0.006287
  0.006603
  0.006937
  0.007222
  0.007464
  0.007828
  0.008191
  0.008543
  0.008874
  0.009189
  0.009510
  0.009837
  0.010261
  0.010614
  0.010985
  0.011407
  0.011786
  0.012192
  0.012600
  0.012975
  0.013409
  0.013849
  0.014240
  0.014649
  0.015043
  0.015539
  0.015868
  0.016286
  0.016830
  0.017118
  0.017585
  0.017995
  0.018434
  0.018821
  0.019238
  0.019746
  0.020124
  0.020604
  0.020962
  0.021403
  0.021889
  0.022362
  0.022812
  0.023187
  0.023653
  0.024062
  0.024530
  0.025080
  0.025459
  0.025914
  0.026447
  0.026872
  0.027331
  0.027814
  0.028418
  0.028888
  0.029424
  0.030023
  0.030495
  0.031066
  0.031569
  0.032147
  0.032667
  0.033257
  0.033891
  0.034370
  0.034965
  0.035646
  0.036195
  0.036705
  0.037259
  0.037793
  0.038412
  0.038997
  0.039605
  0.040183
  0.040760
  0.041310
  0.041863
  0.042476
  0.043006
  0.043595
  0.044150
  0.044718
  0.045311
  0.045926
  0.046501
  0.047129
  0.047693
  0.048205
  0.048906
  0.049498
  0.050070
  0.050676
  0.051288
  0.051832
  0.052402
  0.053085
  0.053643
  0.054169
  0.054803
  0.055420
  0.056051
  0.056611
  0.057192
  0.057868
  0.058370
  0.058996
  0.059623
  0.060147
  0.060784
  0.061353
  0.061938
  0.062559
  0.063125
  0.063766
  0.064430
  0.065014
  0.065612
  0.066197
  0.066806
  0.067401
  0.067993
  0.068655
  0.069150
  0.069785
  0.070486
  0.070960
  0.071498
  0.072077
  0.072680
  0.073222
  0.073784
  0.074420
  0.074961
  0.075503
  0.076162
  0.076768
  0.077320
  0.077954
  0.078534
  0.079048
  0.079757
  0.080335
  0.080904
  0.081617
  0.082207
  0.082895
  0.083480
  0.084189
  0.084768
  0.085393
  0.086116
  0.086687
  0.087408
  0.088009
  0.088681
  0.089325
  0.090050
  0.090644
  0.091178
  0.091936
  0.092539
  0.093240
  0.093939
  0.094546
  0.095151
  0.095877
  0.096463
  0.097018
  0.097714
  0.098265
  0.098945
  0.099556
  0.100197
  0.100785
  0.101343
  0.102044
  0.102558
  0.103147
  0.103760
  0.104333
  0.104947
  0.105472
  0.106034
  0.106590
  0.107119
  0.107651
  0.108147
  0.108657
  0.109273
  0.109692
  0.110161
  0.110754
  0.111138
  0.111629
  0.112019
  0.112609
  0.113094
  0.113430
  0.113982
  0.114404
  0.114891
  0.115311
  0.115710
  0.116229
  0.116633
  0.116963
  0.117486
  0.117887
  0.118304
  0.118702
  0.118976
  0.119487
  0.119883
  0.120178
  0.120638
  0.120998
  0.121498
  0.121890
  0.122290
  0.122952
  0.123307
  0.123809
  0.124264
  0.124729
  0.125213
  0.125459
  0.125895
  0.126213
  0.126481
  0.126848
  0.127080
  0.127326
  0.127624
  0.127827
  0.128105
  0.128292
  0.128549
  0.128797
  0.128907
  0.129269
  0.129436
  0.129610
  0.129799
  0.129930
  0.130108
  0.130196
  0.130444
  0.130564
  0.130699
  0.130887
  0.131007
  0.131153
  0.131348
  0.131531
  0.131593
  0.131807
  0.131970
  0.132063
  0.132306
  0.132451
  0.132581
  0.132715
  0.132921
  0.133086
  0.133157
  0.133433
  0.133541
  0.133665
  0.133839
  0.133956
  0.134199
  0.134283
  0.134556
  0.134695
  0.134792
  0.135001
  0.135042
  0.135276
  0.135352
  0.135452
  0.135582
  0.135690
  0.135904
  0.135923
  0.135986
  0.136129
  0.136235
  0.136355
  0.136440
  0.136502
  0.136551
  0.136620
  0.136699
  0.136787
  0.136981
  0.136924
  0.136990
  0.137128
  0.137075
  0.137227
  0.137265
  0.137343
  0.137401
  0.137443
  0.137530
  0.137534
  0.137572
  0.137567
  0.137521
  0.137547
  0.137568
  0.137525
  0.137603
  0.137544
  0.137498
  0.137595
  0.137572
  0.137532
  0.137540
  0.137521
  0.137539
  0.137620
  0.137557
  0.137582
  0.137641
  0.137600
  0.137635
  0.137633
  0.137612
  0.137537
  0.137559
  0.137623
  0.137516
  0.137510
  0.137538
  0.137449
  0.137384
  0.137399
  0.137296
  0.137225
  0.137207
  0.137118
  0.137086
  0.137038
  0.136941
  0.136787
  0.136689
  0.136550
  0.136555
  0.136467
  0.136329
  0.136257
  0.136069
  0.136076
  0.135866
  0.135753
  0.135694
  0.135511
  0.135469
  0.135337
  0.135213
  0.135134
  0.134967
  0.134818
  0.134756
  0.134625
  0.134548
  0.134448
  0.134292
  0.134206
  0.134072
  0.133896
  0.133781
  0.133706
  0.133505
  0.133354
  0.133344
  0.133115
  0.132979
  0.132917
  0.132682
  0.132539
  0.132317
  0.132218
  0.132105
  0.131885
  0.131717
  0.131591
  0.131466
  0.131220
  0.131147
  0.131005
  0.130826
  0.130714
  0.130560
  0.130425
  0.130277
  0.130175
  0.129938
  0.129819
  0.129748
  0.129539
  0.129368
  0.129216
  0.129015
  0.128755
  0.128567
  0.128426
  0.128233
  0.128035
  0.127818
  0.127517
  0.127314
  0.127100
  0.126883
  0.126676
  0.126420
  0.126199
  0.125961
  0.125699
  0.125555
  0.125358
  0.125045
  0.124855
  0.124654
  0.124429
  0.124178
  0.124007
  0.123853
  0.123594
  0.123387
  0.123244
  0.123010
  0.122823
  0.122678
  0.122506
  0.122310
  0.122031
  0.121954
  0.121739
  0.121478
  0.121354
  0.121134
  0.120950
  0.120757
  0.120550
  0.120355
  0.120131
  0.119987
  0.119747
  0.119532
  0.119415
  0.119140
  0.118973
  0.118792
  0.118577
  0.118407
  0.118214
  0.118059
  0.117853
  0.117687
  0.117549
  0.117312
  0.117160
  0.117088
  0.116940
  0.116721
  0.116495
  0.116353
  0.116193
  0.116028
  0.115906
  0.115787
  0.115562
  0.115401
  0.115229
  0.115004
  0.114923
  0.114791
  0.114547
  0.114407
  0.114251
  0.114022
  0.113912
  0.113753
  0.113577
  0.113425
  0.113294
  0.113131
  0.112946
  0.112842
  0.112723
  0.112581
  0.112430
  0.112287
  0.112161
  0.112022
  0.111841
  0.111698
  0.111592
  0.111451
  0.111312
  0.111172
  0.111015
  0.110910
  0.110749
  0.110577
  0.110432
  0.110262
  0.110154
  0.110015
  0.109829
  0.109707
  0.109587
  0.109418
  0.109265
  0.109140
  0.109003
  0.108866
  0.108757
  0.108582
  0.108424
  0.108326
  0.108224
  0.108068
  0.107886
  0.107820
  0.107698
  0.107572
  0.107447
  0.107332
  0.107225
  0.107018
  0.106962
  0.106929
  0.106808
  0.106683
  0.106560
  0.106543
  0.106474
  0.106365
  0.106284
  0.106233
  0.106133
  0.106062
  0.106022
  0.105922
  0.105881
  0.105774
  0.105783
  0.105729
  0.105668
  0.105632
  0.105536
  0.105507
  0.105461
  0.105424
  0.105395
  0.105424
  0.105327
  0.105315
  0.105263
  0.105198
  0.105188
  0.105175
  0.105172
  0.105049
  0.105037
  0.104974
  0.104956
  0.104902
  0.104850
  0.104835
  0.104753
  0.104706
  0.104639
  0.104631
  0.104560
  0.104507
  0.104549
  0.104493
  0.104443
  0.104460
  0.104465
  0.104475
  0.104480
  0.104487
  0.104463
  0.104483
  0.104494
  0.104452
  0.104484
  0.104559
  0.104600
  0.104573
  0.104531
  0.104576
  0.104621
  0.104634
  0.104656
  0.104679
  0.104676
  0.104666
  0.104712
  0.104758
  0.104786
  0.104746
  0.104736
  0.104771
  0.104762
  0.104754
  0.104739
  0.104731
  0.104760
  0.104760
  0.104719
  0.104766
  0.104794
  0.104767
  0.104809
  0.104787
  0.104783
  0.104838
  0.104845
  0.104862
  0.104918
  0.105003
  0.105010
  0.104983
  0.105013
  0.105069
  0.105112
  0.105147
  0.105207
  0.105257
  0.105275
  0.105338
  0.105366
  0.105363
  0.105397
  0.105442
  0.105473
  0.105479
  0.105508
  0.105527
  0.105590
  0.105567
  0.105578
  0.105643
  0.105622
  0.105690
  0.105681
  0.105681
  0.105740
  0.105785
  0.105814
  0.105828
  0.105886
  0.105913
  0.105989
  0.106004
  0.106059
  0.106144
  0.106194
  0.106343
  0.106371
  0.106444
  0.106545
  0.106563
  0.106678
  0.106818
  0.106876
  0.106924
  0.107061
  0.107093
  0.107155
  0.107284
  0.107362
  0.107439
  0.107525
  0.107599
  0.107707
  0.107825
  0.107871
  0.107972
  0.108037
  0.108135
  0.108242
  0.108393
  0.108563
  0.108645
  0.108750
  0.108887
  0.109061
  0.109165
  0.109291
  0.109508
  0.109670
  0.109838
  0.110027
  0.110208
  0.110416
  0.110588
  0.110836
  0.111081
  0.111245
  0.111503
  0.111751
  0.111972
  0.112237
  0.112505
  0.112803
  0.113136
  0.113425
  0.113723
  0.114037
  0.114327
  0.114597
  0.114931
  0.115292
  0.115562
  0.115911
  0.116202
  0.116510
  0.116835
  0.117112
  0.117435
  0.117779
  0.118113
  0.118377
  0.118689
  0.119031
  0.119364
  0.119685
  0.120018
  0.120374
  0.120720
  0.121002
  0.121250
  0.121518
  0.121820
  0.122130
  0.122426
  0.122737
  0.123079
  0.123399
  0.123678
  0.123922
  0.124112
  0.124311
  0.124529
  0.124840
  0.125072
  0.125323
  0.125572
  0.125668
  0.125857
  0.125959
  0.126116
  0.126250
  0.126361
  0.126554
  0.126700
  0.126808
  0.126906
  0.127074
  0.127133
  0.127238
  0.127364
  0.127455
  0.127589
  0.127693
  0.127753
  0.127815
  0.127837
  0.127907
  0.128053
  0.128117
  0.128187
  0.128276
  0.128297
  0.128384
  0.128504
  0.128602
  0.128762
  0.128918
  0.129114
  0.129268
  0.129487
  0.129699
  0.129956
  0.130259
  0.130478
  0.130776
  0.131047
  0.131367
  0.131693
  0.132038
  0.132411
  0.132777
  0.133239
  0.133709
  0.134139
  0.134629
  0.135191
  0.135660
  0.136167
  0.136727
  0.137246
  0.137839
  0.138470
  0.139104
  0.139753
  0.140367
  0.140963
  0.141598
  0.142234
  0.142890
  0.143539
  0.144224
  0.144925
  0.145649
  0.146450
  0.147191
  0.147872
  0.148485
  0.148929
  0.149167
  0.149237
  0.149024
  0.148626
  0.148046
  0.147234
  0.146437
  0.145549
  0.144733
  0.143969
  0.143214
  0.142572
  0.142007
  0.141543
  0.141068
  0.140694
  0.140333
  0.139996
  0.139790
  0.139598
  0.139405
  0.139327
  0.139273
  0.139190
  0.139131
  0.139075
  0.139080
  0.139074
  0.139148
  0.139259
  0.139384
  0.139619
  0.139901
  0.140224
  0.140551
  0.140925
  0.141260
  0.141619
  0.142035
  0.142436
  0.142984
  0.143606
  0.144305
  0.145218
  0.146361
  0.147581
  0.148861
  0.150164
  0.151347
  0.152485
  0.153481
  0.154378
  0.155176
  0.155890
  0.156639
  0.157300
  0.158040
  0.158873
  0.159771
  0.160747
  0.161754
  0.162812
  0.163943
  0.165118
  0.166256
  0.167349
  0.168407
  0.169443
  0.170246
  0.170851
  0.171119
  0.170785
  0.169849
  0.168096
  0.165566
  0.162419
  0.158955
  0.155497
  0.152061
  0.148880
  0.145992
  0.143400
  0.141103
  0.139004
  0.137190
  0.135625
  0.134322
  0.133252
  0.132277
  0.131422
  0.130683
  0.129994
  0.129315
  0.128600
  0.127858
  0.127215
  0.126780
  0.126426
  0.126227
  0.126217
  0.126272
  0.126423
  0.126574
  0.126877
  0.127262
  0.127606
  0.127920
  0.128227
  0.128580
  0.128848
  0.129134
  0.129397
  0.129621
  0.129922
  0.130228
  0.130523
  0.130869
  0.131193
  0.131550
  0.132045
  0.132602
  0.133154
  0.133737
  0.134373
  0.135009
  0.135647
  0.136260
  0.136921
  0.137616
  0.138242
  0.138895
  0.139556
  0.140170
  0.140716
  0.141250
  0.141664
  0.141977
  0.142265
  0.142487
  0.142674
  0.142704
  0.142768
  0.142792
  0.142670
  0.142482
  0.142153
  0.141772
  0.141257
  0.140616
  0.139878
  0.139082
  0.138164
  0.137334
  0.136438
  0.135473
  0.134625
  0.133740
  0.132879
  0.131970
  0.131175
  0.130409
  0.129639
  0.128918
  0.128199
  0.127495
  0.126847
  0.126220
  0.125597
  0.125088
  0.124612
  0.124200
  0.123789
  0.123382
  0.123020
  0.122666
  0.122394
  0.122100
  0.121855
  0.121642
  0.121449
  0.121275
  0.121162
  0.121049
  0.120883
  0.120822
  0.120769
  0.120686
  0.120621
  0.120616
  0.120583
  0.120537
  0.120508
  0.120490
  0.120443
  0.120394
  0.120347
  0.120294
  0.120291
  0.120228
  0.120163
  0.120159
  0.120098
  0.120111
  0.120059
  0.119985
  0.119984
  0.119953
  0.119944
  0.119877
  0.119899
  0.119868
  0.119799
  0.119785
  0.119771
  0.119728
  0.119642
  0.119601
  0.119572
  0.119535
  0.119504
  0.119433
  0.119387
  0.119324
  0.119225
  0.119181
  0.119137
  0.119039
  0.118939
  0.118888
  0.118781
  0.118699
  0.118603
  0.118447
  0.118416
  0.118284
  0.118152
  0.118073
  0.117942
  0.117800
  0.117697
  0.117585
  0.117506
  0.117365
  0.117236
  0.117129
  0.116971
  0.116782
  0.116678
  0.116584
  0.116469
  0.116285
  0.116202
  0.116075
  0.115953
  0.115842
  0.115615
  0.115492
  0.115298
  0.115137
  0.114979
  0.114810
  0.114600
  0.114312
  0.114090
  0.113912
  0.113724
  0.113471
  0.113204
  0.112969
  0.112744
  0.112513
  0.112194
  0.111951
  0.111662
  0.111329
  0.111080
  0.110794
  0.110404
  0.110091
  0.109667
  0.109281
  0.108927
  0.108594
  0.108326
  0.107971
  0.107794
  0.107657
  0.107600
  0.107580
  0.107630
  0.107743
  0.107986
  0.108246
  0.108389
  0.108494
  0.108563
  0.108677
  0.108702
  0.108748
  0.108650
  0.108501
  0.108528
  0.108458
  0.108274
  0.108179
  0.107902
  0.107655
  0.107410
  0.106979
  0.106510
  0.106045
  0.105475
  0.104899
  0.104323
  0.103768
  0.103259
  0.102732
  0.102146
  0.101645
  0.101072
  0.100418
  0.099701
  0.099072
  0.098477
  0.097756
  0.097167
  0.096360
  0.095555
  0.094826
  0.094058
  0.093241
  0.092396
  0.091657
  0.090766
  0.089845
  0.088999
  0.088123
  0.087322
  0.086555
  0.085762
  0.084927
  0.084269
  0.083685
  0.082974
  0.082372
  0.081812
  0.081138
  0.080572
  0.080091
  0.079519
  0.079028
  0.078604
  0.078131
  0.077750
  0.077288
  0.076866
  0.076478
  0.076079
  0.075620
  0.075198
  0.074837
  0.074370
  0.073868
  0.073445
  0.072984
  0.072490
  0.071982
  0.071536
  0.071139
  0.070620
  0.070149
  0.069692
  0.069207
  0.068780
  0.068285
  0.067815
  0.067319
  0.066750
  0.066300
  0.065832
  0.065430
  0.064980
  0.064588
  0.064221
  0.063792
  0.063463
  0.062993
  0.062466
  0.062109
