TITLE="MN 5.3 - Experimental location of center of vortex in hub coordinate system - Advancing side"
VARIABLES="datapoint","PIV location","PSI[deg.]","xhub[m]","yhub[m]","zhub[m]"
 ZONE T="Adv. side - Psi=15 - y/R=0.4 - Counterrotating tip vortex",I=1,F=POINT
   1005.000       8.000000       15.00000       1.498488      0.8230991      7.0711702E-02
 ZONE T="Adv. side - Psi=20 - y/R=0.4 - Counterrotating tip vortex",I=2,F=POINT
   988.0000       6.000000       20.00000      0.4745686      0.8257739      0.2272019
   990.0000       7.000000       20.00000      0.9985657      0.8163376      0.1555083
 ZONE T="Adv. side - Psi=70 - y/R=0.4 - Counterrotating tip vortex",I=4,F=POINT
   983.0000       1.000000       70.00000      -1.799948      0.8194351      7.4362054E-02
   984.0000       2.000000       70.00000      -1.325667      0.8255279      0.1563927
   985.0000       3.000000       70.00000     -0.7912850      0.8317432      0.2403226
   986.0000       4.000000       70.00000     -0.2673360      0.8170571      0.2706783
 ZONE T="Adv. side - Psi=20 - y/R=0.55",I=2,F=POINT
   981.0000       14.00000       20.00000      0.8307798       1.126705      6.3850954E-02
   982.0000       15.00000       20.00000       1.358791       1.114359      6.2926933E-03
 ZONE T="Adv. side - Psi=70 - y/R=0.55",I=4,F=POINT
   972.0000       9.000000       70.00000      -1.601445       1.114359      9.9176899E-02
   975.0000       10.00000       70.00000      -1.094571       1.129540      0.2058723
   978.0000       11.00000       70.00000     -0.4953647       1.129591      0.2316704
   980.0000       12.00000       70.00000      5.0518867E-02   1.135535      0.1900643
 ZONE T="Adv. side - Psi=20 - y/R=0.7",I=3,F=POINT
   957.0000       20.00000       20.00000      7.4282922E-02   1.414486      0.1177637
   958.0000       21.00000       20.00000      0.5627912       1.408617      5.0885528E-02
   963.0000       22.00000       20.00000       1.184694       1.369120      1.7950475E-02
 ZONE T="Adv. side - Psi=70 - y/R=0.7",I=3,F=POINT
   949.0000       17.00000       70.00000      -1.258835       1.411337      0.1008311
   955.0000       18.00000       70.00000     -0.7285888       1.411337      0.1660150
   956.0000       19.00000       70.00000     -0.1649947       1.417456      0.1516402
 ZONE T="Adv. side - Psi=20 - y/R=0.85",I=3,F=POINT
   938.0000       26.00000       20.00000      3.7692571E-03   1.708346      0.1211337
   939.0000       27.00000       20.00000      0.4749326       1.711600      7.4854940E-02
   940.0000       28.00000       20.00000      0.9178103       1.702274      1.3738796E-02
 ZONE T="Adv. side - Psi=70 - y/R=0.85",I=2,F=POINT
   935.0000       24.00000       70.00000     -0.7921131       1.704607      0.1038519
   937.0000       25.00000       70.00000     -0.2430798       1.704963      0.1285742
 ZONE T="Adv. side - Psi=20 - y/R=0.97",I=2,F=POINT
   932.0000       29.00000       20.00000     -0.3934561       1.947916      7.1116060E-02
   934.0000       30.00000       20.00000      0.3644092       1.939400      0.1871548
