TITLE="MV5.3 - Experimental location of center of vortex in hub coordinate system - Retreating side"
VARIABLES="datapoint","PIV location","PSI[deg.]","xhub[m]","yhub[m]","zhub[m]"
 ZONE T="Ret. side - Psi=20 - y/R=-0.4",I=3,F=POINT
   1162.000       31.00000       20.00000      -1.312973     -0.7927759      0.1803393    
   1163.000       32.00000       20.00000     -0.8174815     -0.7946721      0.1944027
   1164.000       33.00000       20.00000     -0.3357833     -0.8066856      0.1829904
 ZONE T="Ret. side - Psi=70 - y/R=-0.4",I=3,F=POINT
   1166.000       34.00000       70.00000      0.3848234     -0.7984436      0.1593462
   1167.000       35.00000       70.00000      0.8449928     -0.7956870      0.1255820
   1169.000       36.00000       70.00000       1.311496     -0.8016994      7.4530452E-02
 ZONE T="Ret. side - Psi=20 - y/R=-0.7",I=3,F=POINT
   1160.000       43.00000       20.00000      -1.015878      -1.406456      0.1657204
   1159.000       44.00000       20.00000     -0.5064046      -1.400971      0.1970752
   1157.000       45.00000       20.00000     -1.0610528E-02  -1.391200      0.2026861
 ZONE T="Ret. side - Psi=70 - y/R=-0.7",I=2,F=POINT
   1155.000       46.00000       70.00000      0.7432354      -1.400561      0.1383214
   1154.000       47.00000       70.00000       1.183177      -1.407507      4.8543092E-02
 ZONE T="Ret. side - Psi=20 - y/R=-0.85",I=3,F=POINT
   1148.000       48.00000       20.00000     -0.7244078      -1.701084      0.1626621
   1149.000       49.00000       20.00000     -0.1970212      -1.700972      0.2057111
   1152.000       50.00000       20.00000      0.3210123      -1.692636      0.1994992
 ZONE T="Ret. side - Psi=70 - y/R=-0.85",I=1,F=POINT
   1153.000       51.00000       70.00000       1.097185      -1.692666      6.0451008E-02
