TITLE="MV5.3 - Experimental location of center of vortex in hub coordinate system - Advancing side"
VARIABLES="datapoint","PIV location","PSI[deg.]","xhub[m]","yhub[m]","zhub[m]"
 ZONE T="Adv. side - Psi=20 - y/R=0.4 - Counterclokwise tip vortex",I=3,F=POINT
   925.0000       6.000000       20.00000      0.6045669      0.8319054      0.2939458
   924.0000       7.000000       20.00000       1.149406      0.8231068      0.2159916
   929.0000       8.000000       20.00000       1.583061      0.8270313      0.1416890
 ZONE T="Adv. side - Psi=70 - y/R=0.4 - Counterclockwise tip vortex",I=3,F=POINT
   916.0000       2.000000       70.00000      -1.315984      0.8175089      0.1720900
   918.0000       3.000000       70.00000     -0.7959310      0.8024521      0.2563840
   922.0000       4.000000       70.00000     -0.2198498      0.8138090      0.3098632
 ZONE T="Adv. side - Psi=70 - y/R=0.55 - Counterclockwise tip vortex",I=1,F=POINT
   824.0000       54.00000       70.00000      -1.575333       1.107883      9.3451843E-02
 ZONE T="Adv. side - Psi=70 - y/R=0.55 - Counterclockwise tip vortex",I=3,F=POINT
   826.0000       9.000000       70.00000      -1.097133       1.108752      0.1926430
   829.0000       10.00000       70.00000     -0.5863410       1.051548      0.2684510
   832.0000       11.00000       70.00000     -2.9571446E-02   1.045436      0.3315648
 ZONE T="Adv. side - Psi=20 - y/R=0.55 - Counterclockwise tip vortex",I=2,F=POINT
   837.0000       13.00000       20.00000      0.8500224       1.033094      0.2731781
   839.0000       14.00000       20.00000       1.427382       1.041430      0.1623692
 ZONE T="Adv. side - Psi=70 - y/R=0.55 - Clockwise inboard vortex",I=1,F=POINT
   832.0000       11.00000       70.00000     -1.7529100E-02   1.045436      0.2017522
 ZONE T="Adv. side - Psi=20 - y/R=0.55 - Clockwise inboard vortex",I=2,F=POINT
   837.0000       13.00000       20.00000      0.7478004       1.096535      0.2160837
   839.0000       14.00000       20.00000       1.303760       1.116955      0.1151925
 ZONE T="Adv. side - Psi=70 - y/R=0.7 - Counterclockwise tip vortex",I=1,F=POINT
   843.0000       17.00000       70.00000      -1.274866       1.411929      0.1019136
 ZONE T="Adv. side - Psi=70 - y/R=0.7 - Counterclockwise tip vortex",I=1,F=POINT
   855.0000       18.00000       70.00000     -0.2255440       1.368591      0.2743966
 ZONE T="Adv. side  - Psi=20 - y/R=0.7 - Counterclockwise tip vortex",I=4,F=POINT
   857.0000       19.00000       20.00000      8.4722437E-02   1.380604      0.2926970
   859.0000       20.00000       20.00000      0.7107322       1.362172      0.2621468
   862.0000       21.00000       20.00000       1.296819       1.356178      0.1186021
   867.0000       22.00000       20.00000       1.75159357     1.332410     -1.1677598E-02
 ZONE T="Adv. side - Psi=70 - y/R=0.7 - Clockwise inboard vortex",I=1,F=POINT
   855.0000       18.00000       70.00000     -0.2245992       1.371612      0.2090193
 ZONE T="Adv. side - Psi=20 - y/R=0.7 - Clockwise inboard vortex",I=4,F=POINT
   857.0000       19.00000       20.00000      8.5667387E-02   1.383625      0.2273188
   859.0000       20.00000       20.00000      0.6732559       1.389361      0.1693996
   862.0000       21.00000       20.00000       1.201315       1.416598      4.4277564E-02
   867.0000       22.00000       20.00000       1.599853       1.423051     -3.1705602E-02
 ZONE T="Adv. side - Psi=70 - y/R=0.85 - Counterclockwise tip vortex",I=1,F=POINT
   896.0000       56.00000       70.00000     -0.8432032       1.699752      0.1137560    
 ZONE T="Adv. side - Psi=70 - y/R=0.85 - Counterclockwise tip vortex",I=2,F=POINT
   898.0000       24.00000       70.00000     -0.7352723       1.753872      0.1117388
   900.0000       25.00000       70.00000     -0.2022081       1.759187      0.2088389
 ZONE T="Adv. side - Psi=20 - y/R=0.85 - Counterclockwise tip vortex",I=3,F=POINT
   904.0000       26.00000       20.00000      5.6860738E-02   1.754283      0.2336983
   903.0000       27.00000       20.00000      0.6156116       1.689939      0.2408650
   905.0000       28.00000       20.00000       1.194664       1.621657      0.1406417
 ZONE T="Adv. side - Psi=70 - y/R=0.85 - Clockwise inboard vortex",I=2,F=POINT
   898.0000       24.00000       70.00000     -0.5265980       1.630011      0.1251454
   900.0000       25.00000       70.00000      5.0908469E-02   1.611158      0.1847083
 ZONE T="Adv. side - Psi=20 - y/R=0.85 - Clockwise inboard vortex",I=2,F=POINT
   903.0000       27.00000       20.00000      0.6068013       1.702023      0.1150684
   905.0000       28.00000       20.00000       1.087215       1.691140      2.9500492E-02
 ZONE T="Adv. side - Psi=20 - y/R=0.97 - Clockwise inboard vortex",I=2,F=POINT
   906.0000       29.00000       20.00000     -0.3646731       1.954601      8.3607867E-02
   908.0000       30.00000       20.00000      0.4580191       1.940052      0.1520286
