TITLE="MN 5.3 - Experimental location of center of vortex in hub coordinate system - Retreating side"
VARIABLES="datapoint","PIV location","PSI[deg.]","xhub[m]","yhub[m]","zhub[m]"
 ZONE T="Ret. side - Psi=20 - y/R=-0.4",I=3,F=POINT
   1177.000       31.00000       20.00000      -1.323455     -0.7971498      0.1831401
   1176.000       32.00000       20.00000     -0.8090154     -0.7940522      0.2146569
   1174.000       33.00000       20.00000     -0.3071482     -0.8000436      0.2050162
 ZONE T="Ret. side - Psi=70 - y/R=-0.4",I=3,F=POINT
   1173.000       34.00000       70.00000      0.4733451     -0.8028914      0.1811060
   1172.000       35.00000       70.00000      0.9609800     -0.7843462      0.1276368
   1171.000       36.00000       70.00000       1.439664     -0.7846924      5.5898130E-02
 ZONE T="Ret. side - Psi=20 - y/R=-0.7",I=3,F=POINT
   1179.000       43.00000       20.00000      -1.018513      -1.396888      0.1432708
   1181.000       44.00000       20.00000     -0.5235107      -1.400142      0.1545715
   1182.000       45.00000       20.00000     -3.4791086E-02  -1.397482      0.1357710
 ZONE T="Ret. side - Psi=70 - y/R=-0.7",I=2,F=POINT
   1183.000       46.00000       70.00000      0.6633433      -1.409922      7.6100811E-02
   1184.000       47.00000       70.00000       1.152072      -1.397003      9.2992783E-03
 ZONE T="Ret. side - Psi=20 - y/R=-0.85",I=3,F=POINT
   1189.000       48.00000       20.00000     -0.7215914      -1.694052      0.1383319
   1187.000       49.00000       20.00000     -0.2169740      -1.697150      0.1533671
   1186.000       50.00000       20.00000      0.2822418      -1.699909      0.1292887
 ZONE T="Ret. side - Psi=70 - y/R=-0.85",I=1,F=POINT
   1185.000       51.00000       70.00000      0.9907781      -1.700571      6.8373948E-02
 ZONE T="Ret. side - Psi=20 - y/R=-0.97",I=2,F=POINT
   1190.000       52.00000       20.00000     -0.2552052      -1.930980      0.1354428
   1191.000       53.00000       20.00000      0.3866311      -1.927786      0.2009593
