TITLE="BL5.3 - Experimental location of center of vortex in hub coordinate system - Advancing side"
VARIABLES="datapoint","PIV location","PSI[deg.]","xhub[m]","yhub[m]","zhub[m]"
 ZONE T="Adv. side - Psi=10 - y/R=0.403",I=1,F=POINT
   696.0000       8.000000       10.00000       1.547288      0.8088105      1.1725962E-02
 ZONE T="Adv. side - Psi=20 - y/R=0.403",I=3,F=POINT
   699.0000       5.000000       20.00000      2.7537676E-02  0.8090096      0.2617758    
   698.0000       6.000000       20.00000      0.5935373      0.8031893      0.2261167    
   697.0000       7.000000       20.00000       1.092250      0.7967264      0.1577185    
 ZONE T="Adv. side - Psi=70 - y/R=0.403",I=4,F=POINT
   708.0000       1.000000       70.00000      -1.810516      0.8117609      9.8788396E-02
   707.0000       2.000000       70.00000      -1.318482      0.8120145      0.2087737    
   706.0000       3.000000       70.00000     -0.7754400      0.7843846      0.2653736    
   705.0000       4.000000       70.00000     -0.2057020      0.8239408      0.2692912    
 ZONE T="Adv. side - Psi=20 - y/R=0.55",I=3,F=POINT
   689.0000       13.00000       20.00000      0.2980526       1.134592      0.2693402    
   688.0000       14.00000       20.00000      0.8450381       1.123613      0.1697721    
   687.0000       15.00000       20.00000       1.377767       1.127920      5.5298820E-02
 ZONE T="Adv. side - Psi=65 - y/R=0.55",I=1,F=POINT
   691.0000       12.00000       65.00000     -3.1548273E-03   1.130069      0.2691083    
 ZONE T="Adv. side - Psi=70 - y/R=0.55",I=3,F=POINT
   694.0000       9.000000       70.00000      -1.575857       1.166321      0.1154025    
   693.0000       10.00000       70.00000      -1.087637       1.139147      0.2205375    
   692.0000       11.00000       70.00000     -0.5345789       1.111957      0.2658918
 ZONE T="Adv. side - Psi=20 - y/R=0.7 - Higher quality laser",I=4,F=POINT
   1000.000       20.00000       20.00000      0.1126653      1.394578      0.2353519
   995.0000       21.00000       20.00000      0.6859974      1.388306      0.1845329
   998.0000       22.00000       20.00000      1.306127       1.405267      8.7233692E-02
   999.0000       23.00000       20.00000      1.794123       1.391789      2.7780160E-02
 ZONE T="Adv. side - Psi=70 - y/R=0.7 - Higher quality laser",I=3,F=POINT
   1003.000       17.00000       70.00000     -1.263783       1.405057      0.1408161
   1002.000       18.00000       70.00000     -0.7219598      1.402846      0.2012632
   1001.000       19.00000       70.00000     -0.1538545      1.397661      0.2386537
 ZONE T="Adv. side - Psi=20 - y/R=0.85 - Higher quality laser",I=3,F=POINT
   1044.000       26.00000       20.00000      2.9907396E-02   1.701741      0.2063994    
   1045.000       27.00000       20.00000      0.6846721       1.706811      0.1826572    
   1047.000       28.00000       20.00000       1.308841       1.685632      0.1200594    
 ZONE T="Adv. side - Psi=70 - y/R=0.85 - Higher quality laser",I=2,F=POINT
   1050.000       24.00000       70.00000     -0.8210802       1.704246      0.1275884    
   1049.000       25.00000       70.00000     -0.2754016       1.691944      0.1919896    
 ZONE T="Adv. side - Psi=20 - y/R=0.97 - Higher quality laser",I=3,F=POINT
   1051.000       29.00000       20.00000     -0.4212666       1.946858      8.2805008E-02
   1059.000       29.00000       20.00000     -0.4155850       1.943858      8.2622364E-02
   1052.000       30.00000       20.00000      0.2778791       1.949255      0.1824480    
