TITLE="BL5.3 - Experimental location of center of vortex in hub coordinate system - Retreating side"
VARIABLES="datapoint","PIV location","PSI[deg.]","xhub[m]","yhub[m]","zhub[m]"
 ZONE T="Ret. side - Psi=20 - y/R=-0.4",I=3,F=POINT
   1127.000       31.00000       20.00000      -1.323617     -0.7964509      0.1882326    
   1128.000       32.00000       20.00000     -0.8100272     -0.8059569      0.2257944    
   1129.000       33.00000       20.00000     -0.3038163     -0.8026759      0.2271436    
 ZONE T="Ret. side - Psi=70  - y/R=-0.4",I=2,F=POINT
   1131.000       34.00000       70.00000      0.4661287     -0.8056970      0.2081833    
   1133.000       35.00000       70.00000      0.9570885     -0.7968938      0.1687804    
 ZONE T="Ret. side - Psi=20 - y/R=-0.7",I=3,F=POINT
   1120.000       43.00000       20.00000      -1.024585      -1.399539      0.1546469
   1122.000       44.00000       20.00000     -0.5207387      -1.396297      0.1816631
   1123.000       45.00000       20.00000     -1.8217035E-02  -1.396717      0.1783397
 ZONE T="Ret. side - Psi=70 - y/R=-0.7",I=2,F=POINT
   1124.000       46.00000       70.00000      0.7279186      -1.399465      9.0414777E-02
   1126.000       47.00000       70.00000       1.158948      -1.396464      4.6397626E-02
 ZONE T="Ret. side - Psi=20 - y/R=-0.85",I=3,F=POINT
   1114.000       48.00000       20.00000     -0.7218890      -1.698240      0.1400180    
   1115.000       49.00000       20.00000     -0.2184666      -1.695994      0.1686126    
   1118.000       50.00000       20.00000      0.2911392      -1.693213      0.1438827    
 ZONE T="Ret. side - Psi=70 - y/R=-0.85",I=1,F=POINT
   1119.000       51.00000       70.00000       1.007860      -1.696303      4.9683098E-02
 ZONE T="Ret. side  - Psi=20 - y/R=-0.97",I=2,F=POINT
   1136.000       52.00000       20.00000     -0.2647809      -1.936459      0.1292968    
   1137.000       53.00000       20.00000      0.3286968      -1.933423      0.1738956    
