TITLE = "Polar 36, Datapoint 413"
VARIABLES = y_mic, x_traverse, z, BVISPL6to40, LOWSPL1to5, OASPL1to244
ZONE T="Zone1" I = 17, J = 13, F=POINT
-2.69	-4.00	2.215	94.57	110.82	110.93
-2.69	-3.50	2.215	95.80	109.82	110.00
-2.69	-3.00	2.215	95.26	108.68	108.89
-2.69	-2.50	2.215	95.03	108.48	108.70
-2.69	-2.00	2.215	95.16	109.09	109.29
-2.69	-1.50	2.215	96.40	110.40	110.62
-2.69	-1.00	2.215	96.03	112.02	112.18
-2.69	-0.50	2.215	98.17	113.63	113.81
-2.69	0.00	2.215	102.26	114.72	115.04
-2.69	0.50	2.215	103.74	115.10	115.53
-2.69	1.00	2.215	106.35	114.97	115.73
-2.69	1.50	2.215	107.91	114.45	115.46
-2.69	2.00	2.215	108.57	113.58	114.86
-2.69	2.50	2.215	108.08	112.36	113.79
-2.69	3.00	2.215	107.62	110.52	112.36
-2.69	3.50	2.215	106.05	107.79	110.09
-2.69	4.00	2.215	104.24	104.47	107.43
-2.24	-4.00	2.215	94.65	110.83	110.95
-2.24	-3.50	2.215	96.00	109.83	110.03
-2.24	-3.00	2.215	96.34	108.68	108.96
-2.24	-2.50	2.215	95.23	108.57	108.81
-2.24	-2.00	2.215	94.89	109.63	109.81
-2.24	-1.50	2.215	96.83	111.15	111.34
-2.24	-1.00	2.215	98.36	112.68	112.88
-2.24	-0.50	2.215	100.46	114.22	114.44
-2.24	0.00	2.215	102.85	115.29	115.60
-2.24	0.50	2.215	104.26	115.75	116.17
-2.24	1.00	2.215	106.99	115.63	116.35
-2.24	1.50	2.215	109.05	115.04	116.12
-2.24	2.00	2.215	109.44	114.15	115.47
-2.24	2.50	2.215	108.58	112.95	114.34
-2.24	3.00	2.215	107.42	111.15	112.71
-2.24	3.50	2.215	106.12	108.36	110.42
-2.24	4.00	2.215	103.96	104.57	107.33
-1.80	-4.00	2.215	97.23	110.69	110.90
-1.80	-3.50	2.215	97.43	109.79	110.06
-1.80	-3.00	2.215	97.14	108.88	109.19
-1.80	-2.50	2.215	97.16	109.28	109.58
-1.80	-2.00	2.215	96.21	110.61	110.81
-1.80	-1.50	2.215	96.56	111.90	112.05
-1.80	-1.00	2.215	98.23	113.09	113.27
-1.80	-0.50	2.215	101.50	114.33	114.59
-1.80	0.00	2.215	104.86	115.29	115.71
-1.80	0.50	2.215	105.26	115.85	116.28
-1.80	1.00	2.215	108.76	115.86	116.72
-1.80	1.50	2.215	110.52	115.33	116.63
-1.80	2.00	2.215	110.43	114.47	115.95
-1.80	2.50	2.215	109.58	113.33	114.89
-1.80	3.00	2.215	107.84	111.57	113.13
-1.80	3.50	2.215	106.11	108.68	110.65
-1.80	4.00	2.215	103.88	104.57	107.37
-1.34	-4.00	2.215	100.28	110.91	111.30
-1.34	-3.50	2.215	100.26	110.13	110.58
-1.34	-3.00	2.215	99.94	109.90	110.36
-1.34	-2.50	2.215	99.72	110.92	111.27
-1.34	-2.00	2.215	99.38	112.23	112.47
-1.34	-1.50	2.215	98.51	113.06	113.24
-1.34	-1.00	2.215	99.15	113.50	113.68
-1.34	-0.50	2.215	102.76	113.96	114.31
-1.34	0.00	2.215	104.94	114.60	115.11
-1.34	0.50	2.215	106.23	115.37	115.94
-1.34	1.00	2.215	109.59	115.81	116.84
-1.34	1.50	2.215	111.05	115.63	117.01
-1.34	2.00	2.215	111.07	114.99	116.52
-1.34	2.50	2.215	110.21	113.95	115.51
-1.34	3.00	2.215	108.45	112.24	113.80
-1.34	3.50	2.215	106.12	109.37	111.17
-1.34	4.00	2.215	103.71	105.33	107.71
-0.89	-4.00	2.215	102.87	110.85	111.54
-0.89	-3.50	2.215	103.68	110.51	111.39
-0.89	-3.00	2.215	103.83	111.10	111.90
-0.89	-2.50	2.215	103.74	112.39	112.99
-0.89	-2.00	2.215	103.51	113.60	114.04
-0.89	-1.50	2.215	102.86	114.10	114.43
-0.89	-1.00	2.215	100.34	113.67	113.88
-0.89	-0.50	2.215	102.44	112.74	113.15
-0.89	0.00	2.215	103.03	112.45	112.98
-0.89	0.50	2.215	104.42	113.57	114.16
-0.89	1.00	2.215	108.20	114.91	115.86
-0.89	1.50	2.215	109.98	115.43	116.60
-0.89	2.00	2.215	110.46	115.16	116.47
-0.89	2.50	2.215	109.93	114.19	115.60
-0.89	3.00	2.215	108.33	112.26	113.96
-0.89	3.50	2.215	106.36	109.36	111.18
-0.89	4.00	2.215	102.83	105.27	107.55
-0.46	-4.00	2.215	104.45	111.60	112.39
-0.46	-3.50	2.215	106.42	111.81	112.96
-0.46	-3.00	2.215	107.41	112.80	113.97
-0.46	-2.50	2.215	108.28	114.21	115.27
-0.46	-2.00	2.215	108.24	115.35	116.17
-0.46	-1.50	2.215	108.49	115.62	116.44
-0.46	-1.00	2.215	105.77	114.61	115.17
-0.46	-0.50	2.215	104.78	112.14	112.92
-0.46	0.00	2.215	104.03	108.58	110.09
-0.46	0.50	2.215	104.08	109.71	110.95
-0.46	1.00	2.215	106.68	113.24	114.23
-0.46	1.50	2.215	108.39	114.94	115.88
-0.46	2.00	2.215	109.22	115.24	116.21
-0.46	2.50	2.215	108.92	114.26	115.51
-0.46	3.00	2.215	107.69	113.64	114.85
-0.46	3.50	2.215	106.31	111.08	112.52
-0.46	4.00	2.215	101.62	104.49	110.20
0.01	-4.00	2.215	104.26	111.75	112.49
0.01	-3.50	2.215	106.61	112.42	113.48
0.01	-3.00	2.215	108.58	113.81	115.00
0.01	-2.50	2.215	109.96	115.36	116.51
0.01	-2.00	2.215	111.06	116.51	117.63
0.01	-1.50	2.215	111.97	116.79	118.06
0.01	-1.00	2.215	110.41	115.89	116.99
0.01	-0.50	2.215	109.40	113.34	114.84
0.01	0.00	2.215	108.72	107.81	111.51
0.01	0.50	2.215	105.85	105.87	109.50
0.01	1.00	2.215	105.18	111.64	112.95
0.01	1.50	2.215	105.20	114.38	115.06
0.01	2.00	2.215	105.37	114.78	115.33
0.01	2.50	2.215	106.08	114.62	115.31
0.01	3.00	2.215	106.49	113.66	115.10
0.01	3.50	2.215	105.50	110.69	113.49
0.01	4.00	2.215	98.71	106.08	107.36
0.46	-4.00	2.215	104.43	112.24	112.95
0.46	-3.50	2.215	106.69	113.19	114.12
0.46	-3.00	2.215	108.22	114.88	115.78
0.46	-2.50	2.215	109.87	116.55	117.44
0.46	-2.00	2.215	110.99	117.75	118.62
0.46	-1.50	2.215	112.41	118.20	119.25
0.46	-1.00	2.215	111.70	117.67	118.67
0.46	-0.50	2.215	111.20	116.21	117.43
0.46	0.00	2.215	109.76	114.06	115.47
0.46	0.50	2.215	108.18	112.98	114.28
0.46	1.00	2.215	106.96	114.25	115.06
0.46	1.50	2.215	104.60	115.45	115.85
0.46	2.00	2.215	101.81	115.57	115.78
0.46	2.50	2.215	101.54	114.47	114.90
0.46	3.00	2.215	102.02	113.46	113.96
0.46	3.50	2.215	101.07	111.06	112.37
0.46	4.00	2.215	96.68	105.82	107.12
0.90	-4.00	2.215	103.76	111.89	112.57
0.90	-3.50	2.215	105.71	113.12	113.93
0.90	-3.00	2.215	107.39	115.05	115.80
0.90	-2.50	2.215	109.13	116.79	117.52
0.90	-2.00	2.215	110.47	118.05	118.78
0.90	-1.50	2.215	111.94	118.68	119.55
0.90	-1.00	2.215	111.48	118.55	119.35
0.90	-0.50	2.215	111.75	117.87	118.84
0.90	0.00	2.215	111.51	116.89	118.02
0.90	0.50	2.215	109.58	116.16	117.08
0.90	1.00	2.215	108.25	116.21	116.94
0.90	1.50	2.215	105.65	116.31	116.79
0.90	2.00	2.215	103.55	115.86	116.16
0.90	2.50	2.215	101.94	114.76	115.00
0.90	3.00	2.215	101.02	113.10	113.42
0.90	3.50	2.215	99.57	110.36	110.79
0.90	4.00	2.215	96.83	105.07	106.73
1.36	-4.00	2.215	102.46	111.61	112.18
1.36	-3.50	2.215	104.72	113.12	113.79
1.36	-3.00	2.215	106.29	115.10	115.70
1.36	-2.50	2.215	107.94	116.81	117.39
1.36	-2.00	2.215	109.56	118.09	118.70
1.36	-1.50	2.215	111.28	118.81	119.55
1.36	-1.00	2.215	111.43	118.89	119.63
1.36	-0.50	2.215	111.91	118.56	119.45
1.36	0.00	2.215	111.81	117.97	118.94
1.36	0.50	2.215	109.22	117.32	117.97
1.36	1.00	2.215	107.42	116.95	117.42
1.36	1.50	2.215	104.72	116.53	116.87
1.36	2.00	2.215	104.19	115.75	116.13
1.36	2.50	2.215	103.44	114.38	114.77
1.36	3.00	2.215	102.38	112.53	113.01
1.36	3.50	2.215	99.98	109.61	110.12
1.36	4.00	2.215	97.51	105.54	106.25
1.81	-4.00	2.215	101.58	110.95	111.52
1.81	-3.50	2.215	103.48	112.65	113.24
1.81	-3.00	2.215	105.40	114.58	115.14
1.81	-2.50	2.215	106.91	116.25	116.78
1.81	-2.00	2.215	109.01	117.49	118.10
1.81	-1.50	2.215	110.37	118.20	118.90
1.81	-1.00	2.215	110.40	118.37	119.05
1.81	-0.50	2.215	110.60	118.22	118.96
1.81	0.00	2.215	110.13	117.84	118.55
1.81	0.50	2.215	107.86	117.29	117.79
1.81	1.00	2.215	106.78	116.81	117.23
1.81	1.50	2.215	104.66	116.20	116.51
1.81	2.00	2.215	103.57	115.26	115.60
1.81	2.50	2.215	103.94	113.78	114.27
1.81	3.00	2.215	102.07	111.82	112.33
1.81	3.50	2.215	99.83	109.08	109.68
1.81	4.00	2.215	96.94	105.71	106.33
2.27	-4.00	2.215	102.07	109.85	110.63
2.27	-3.50	2.215	103.57	111.56	112.30
2.27	-3.00	2.215	104.32	113.51	114.07
2.27	-2.50	2.215	105.81	115.18	115.72
2.27	-2.00	2.215	107.30	116.34	116.89
2.27	-1.50	2.215	108.22	117.00	117.58
2.27	-1.00	2.215	107.86	117.19	117.69
2.27	-0.50	2.215	107.97	117.14	117.66
2.27	0.00	2.215	107.83	116.94	117.47
2.27	0.50	2.215	106.98	116.54	117.03
2.27	1.00	2.215	106.55	116.10	116.59
2.27	1.50	2.215	104.60	115.47	115.83
2.27	2.00	2.215	103.64	114.53	114.89
2.27	2.50	2.215	103.16	113.05	113.53
2.27	3.00	2.215	102.39	111.10	111.72
2.27	3.50	2.215	100.53	108.61	109.35
2.27	4.00	2.215	97.84	105.90	106.66
2.70	-4.00	2.215	102.11	108.72	109.68
2.70	-3.50	2.215	103.16	110.21	111.09
2.70	-3.00	2.215	103.50	112.19	112.80
2.70	-2.50	2.215	104.13	114.00	114.46
2.70	-2.00	2.215	104.79	115.09	115.50
2.70	-1.50	2.215	105.17	115.68	116.08
2.70	-1.00	2.215	105.22	115.84	116.22
2.70	-0.50	2.215	106.08	115.82	116.28
2.70	0.00	2.215	106.53	115.75	116.27
2.70	0.50	2.215	106.04	115.48	116.00
2.70	1.00	2.215	105.68	115.09	115.60
2.70	1.50	2.215	104.27	114.47	114.88
2.70	2.00	2.215	103.87	113.59	114.04
2.70	2.50	2.215	103.00	112.27	112.80
2.70	3.00	2.215	101.90	110.51	111.15
2.70	3.50	2.215	100.62	108.27	109.04
2.70	4.00	2.215	98.61	105.88	106.75
