TITLE = "Polar 40, Datapoint 485"
VARIABLES = y_mic, x_traverse, z, BVISPL6to40, LOWSPL1to5, OASPL1to244
ZONE T="Zone1" I = 16, J = 13, F=POINT
-2.69	-4.00	2.215	91.04	111.23	111.31
-2.69	-3.50	2.215	90.99	110.34	110.41
-2.69	-3.00	2.215	91.73	109.90	110.01
-2.69	-2.50	2.215	91.72	110.76	110.90
-2.69	-2.00	2.215	93.49	112.06	112.18
-2.69	-1.50	2.215	94.17	112.82	112.95
-2.69	-1.00	2.215	95.54	112.78	112.94
-2.69	-0.50	2.215	97.85	112.09	112.35
-2.69	0.00	2.215	100.17	110.72	111.27
-2.69	0.50	2.215	102.42	109.39	110.48
-2.69	1.00	2.215	105.17	107.97	110.13
-2.69	1.50	2.215	105.65	106.50	109.35
-2.69	2.50	2.215	104.64	104.31	107.53
-2.69	3.00	2.215	103.83	102.79	106.40
-2.69	3.50	2.215	102.68	99.84	104.54
-2.69	4.00	2.215	101.42	95.80	102.55
-2.24	-4.00	2.215	89.57	111.39	111.45
-2.24	-3.50	2.215	90.33	110.58	110.66
-2.24	-3.00	2.215	91.09	110.48	110.57
-2.24	-2.50	2.215	91.13	111.65	111.75
-2.24	-2.00	2.215	91.60	113.09	113.18
-2.24	-1.50	2.215	93.84	113.90	114.00
-2.24	-1.00	2.215	94.29	113.78	113.90
-2.24	-0.50	2.215	97.64	112.93	113.18
-2.24	0.00	2.215	101.82	111.54	112.18
-2.24	0.50	2.215	103.82	110.35	111.53
-2.24	1.00	2.215	106.68	109.22	111.47
-2.24	1.50	2.215	107.60	108.32	111.18
-2.24	2.50	2.215	106.74	107.48	110.16
-2.24	3.00	2.215	105.10	106.35	108.81
-2.24	3.50	2.215	104.06	103.95	107.05
-2.24	4.00	2.215	103.00	100.67	105.05
-1.80	-4.00	2.215	90.48	111.39	111.44
-1.80	-3.50	2.215	91.81	110.60	110.71
-1.80	-3.00	2.215	91.75	110.88	110.98
-1.80	-2.50	2.215	91.89	112.43	112.51
-1.80	-2.00	2.215	90.32	113.98	114.04
-1.80	-1.50	2.215	93.04	114.78	114.84
-1.80	-1.00	2.215	95.17	114.58	114.70
-1.80	-0.50	2.215	98.41	113.63	113.88
-1.80	0.00	2.215	101.90	112.31	112.95
-1.80	0.50	2.215	104.50	111.34	112.51
-1.80	1.00	2.215	107.68	110.78	112.86
-1.80	1.50	2.215	109.58	110.55	113.27
-1.80	2.50	2.215	109.06	109.95	112.56
-1.80	3.00	2.215	107.60	108.69	111.22
-1.80	3.50	2.215	105.50	106.56	109.10
-1.80	4.00	2.215	103.67	103.42	106.60
-1.34	-4.00	2.215	92.28	111.37	111.45
-1.34	-3.50	2.215	92.56	110.65	110.75
-1.34	-3.00	2.215	92.25	111.40	111.49
-1.34	-2.50	2.215	92.88	113.35	113.42
-1.34	-2.00	2.215	91.94	114.96	115.01
-1.34	-1.50	2.215	94.87	115.68	115.74
-1.34	-1.00	2.215	96.56	115.41	115.50
-1.34	-0.50	2.215	100.62	114.34	114.60
-1.34	0.00	2.215	103.07	112.91	113.60
-1.34	0.50	2.215	105.09	111.98	113.22
-1.34	1.00	2.215	108.42	111.99	113.94
-1.34	1.50	2.215	110.73	112.39	114.83
-1.34	2.50	2.215	110.71	111.87	114.36
-1.34	3.00	2.215	109.27	110.58	113.01
-1.34	3.50	2.215	107.13	108.53	110.92
-1.34	4.00	2.215	105.09	105.18	108.18
-0.89	-4.00	2.215	93.58	111.08	111.18
-0.89	-3.50	2.215	93.97	110.73	110.84
-0.89	-3.00	2.215	94.63	111.96	112.05
-0.89	-2.50	2.215	93.24	113.96	114.02
-0.89	-2.00	2.215	92.95	115.52	115.57
-0.89	-1.50	2.215	93.29	116.11	116.15
-0.89	-1.00	2.215	95.01	115.63	115.69
-0.89	-0.50	2.215	98.50	114.13	114.30
-0.89	0.00	2.215	103.55	112.04	112.73
-0.89	0.50	2.215	106.39	110.65	112.36
-0.89	1.00	2.215	109.32	111.47	113.77
-0.89	1.50	2.215	111.41	112.78	115.29
-0.89	2.50	2.215	111.72	112.73	115.29
-0.89	3.00	2.215	109.96	111.34	113.74
-0.89	3.50	2.215	107.87	109.28	111.70
-0.89	4.00	2.215	106.19	105.40	109.04
-0.46	-4.00	2.215	96.63	111.64	111.80
-0.46	-3.50	2.215	95.93	111.73	111.87
-0.46	-3.00	2.215	97.38	113.11	113.25
-0.46	-2.50	2.215	97.68	114.98	115.08
-0.46	-2.00	2.215	97.53	116.42	116.49
-0.46	-1.50	2.215	97.54	116.81	116.89
-0.46	-1.00	2.215	99.66	116.02	116.14
-0.46	-0.50	2.215	102.45	113.74	114.15
-0.46	0.00	2.215	105.28	109.75	111.43
-0.46	0.50	2.215	106.12	106.46	109.94
-0.46	1.00	2.215	106.55	109.92	111.92
-0.46	1.50	2.215	108.58	112.76	114.27
-0.46	2.50	2.215	111.34	113.20	115.42
-0.46	3.00	2.215	110.38	112.19	114.53
-0.46	3.50	2.215	108.36	109.86	112.78
-0.46	4.00	2.215	104.68	106.15	108.72
0.01	-4.00	2.215	98.08	111.88	112.07
0.01	-3.50	2.215	98.51	112.31	112.51
0.01	-3.00	2.215	99.75	113.80	113.99
0.01	-2.50	2.215	101.06	115.54	115.72
0.01	-2.00	2.215	103.00	116.85	117.04
0.01	-1.50	2.215	103.53	117.13	117.34
0.01	-1.00	2.215	103.97	116.15	116.43
0.01	-0.50	2.215	105.25	113.49	114.14
0.01	0.00	2.215	107.04	107.89	110.70
0.01	0.50	2.215	106.99	102.70	108.92
0.01	1.00	2.215	107.24	109.14	111.61
0.01	1.50	2.215	105.95	112.48	113.61
0.01	2.50	2.215	107.99	113.39	115.25
0.01	3.00	2.215	108.51	113.58	115.26
0.01	3.50	2.215	106.71	109.48	111.84
0.01	4.00	2.215	102.39	106.09	108.30
0.46	-4.00	2.215	98.04	112.52	112.68
0.46	-3.50	2.215	99.15	113.24	113.41
0.46	-3.00	2.215	100.74	114.78	114.96
0.46	-2.50	2.215	102.87	116.41	116.61
0.46	-2.00	2.215	104.59	117.62	117.83
0.46	-1.50	2.215	106.48	117.95	118.26
0.46	-1.00	2.215	108.35	117.23	117.77
0.46	-0.50	2.215	109.58	115.38	116.42
0.46	0.00	2.215	110.72	112.55	114.79
0.46	0.50	2.215	110.55	110.84	113.78
0.46	1.00	2.215	111.44	111.87	114.70
0.46	1.50	2.215	111.30	113.06	115.31
0.46	2.50	2.215	108.51	112.47	114.08
0.46	3.00	2.215	106.46	111.42	113.12
0.46	3.50	2.215	102.97	108.29	110.29
0.46	4.00	2.215	101.35	104.89	106.97
0.90	-4.00	2.215	100.21	112.86	113.10
0.90	-3.50	2.215	101.70	113.78	114.05
0.90	-3.00	2.215	102.95	115.29	115.54
0.90	-2.50	2.215	104.99	116.80	117.09
0.90	-2.00	2.215	106.16	117.98	118.27
0.90	-1.50	2.215	108.61	118.50	118.93
0.90	-1.00	2.215	110.42	118.23	118.92
0.90	-0.50	2.215	111.78	117.26	118.38
0.90	0.00	2.215	113.99	115.75	118.01
0.90	0.50	2.215	113.73	114.35	117.12
0.90	1.00	2.215	113.65	113.67	116.71
0.90	1.50	2.215	112.81	113.39	116.14
0.90	2.50	2.215	109.48	111.38	113.55
0.90	3.00	2.215	106.76	109.36	111.30
0.90	3.50	2.215	101.86	106.16	107.79
0.90	4.00	2.215	99.56	105.54	106.59
1.36	-4.00	2.215	100.77	113.43	113.67
1.36	-3.50	2.215	102.49	114.46	114.74
1.36	-3.00	2.215	104.04	115.89	116.17
1.36	-2.50	2.215	106.62	117.31	117.68
1.36	-2.00	2.215	108.56	118.48	118.91
1.36	-1.50	2.215	110.76	119.10	119.70
1.36	-1.00	2.215	113.46	119.11	120.18
1.36	-0.50	2.215	114.45	118.53	120.00
1.36	0.00	2.215	115.85	117.36	119.73
1.36	0.50	2.215	116.04	115.87	119.02
1.36	1.00	2.215	115.90	114.44	118.28
1.36	1.50	2.215	114.34	113.29	116.88
1.36	2.50	2.215	107.31	110.49	112.22
1.36	3.00	2.215	103.84	108.18	109.57
1.36	3.50	2.215	101.80	105.76	107.25
1.36	4.00	2.215	99.52	104.10	105.47
1.81	-4.00	2.215	102.02	113.78	114.07
1.81	-3.50	2.215	104.10	114.78	115.15
1.81	-3.00	2.215	105.99	116.14	116.54
1.81	-2.50	2.215	108.42	117.46	117.99
1.81	-2.00	2.215	110.84	118.56	119.24
1.81	-1.50	2.215	113.09	119.16	120.12
1.81	-1.00	2.215	115.14	119.19	120.65
1.81	-0.50	2.215	116.65	118.74	120.84
1.81	0.00	2.215	117.01	117.65	120.37
1.81	0.50	2.215	116.58	116.07	119.37
1.81	1.00	2.215	116.22	114.34	118.42
1.81	1.50	2.215	113.91	112.74	116.41
1.81	2.50	2.215	106.91	109.63	111.53
1.81	3.00	2.215	102.83	107.45	108.77
1.81	3.50	2.215	97.59	105.52	106.20
1.81	4.00	2.215	97.16	104.53	105.31
2.27	-4.00	2.215	103.88	113.83	114.26
2.27	-3.50	2.215	104.69	114.70	115.13
2.27	-3.00	2.215	106.61	116.03	116.50
2.27	-2.50	2.215	108.40	117.23	117.77
2.27	-2.00	2.215	110.89	118.17	118.92
2.27	-1.50	2.215	113.92	118.64	119.91
2.27	-1.00	2.215	115.82	118.58	120.43
2.27	-0.50	2.215	116.90	118.07	120.55
2.27	0.00	2.215	116.57	116.96	119.79
2.27	0.50	2.215	115.81	115.38	118.63
2.27	1.00	2.215	114.83	113.57	117.28
2.27	1.50	2.215	112.09	111.87	115.02
2.27	2.50	2.215	103.94	108.78	110.05
2.27	3.00	2.215	101.22	106.98	108.03
2.27	3.50	2.215	98.90	105.62	106.48
2.27	4.00	2.215	97.85	105.02	105.81
2.70	-4.00	2.215	105.62	113.48	114.16
2.70	-3.50	2.215	106.50	114.19	114.89
2.70	-3.00	2.215	108.11	115.53	116.26
2.70	-2.50	2.215	109.77	116.62	117.45
2.70	-2.00	2.215	111.96	117.37	118.48
2.70	-1.50	2.215	113.95	117.69	119.24
2.70	-1.00	2.215	115.97	117.48	119.82
2.70	-0.50	2.215	116.25	116.84	119.58
2.70	0.00	2.215	115.31	115.69	118.53
2.70	0.50	2.215	113.90	114.11	117.04
2.70	1.00	2.215	113.38	112.30	115.91
2.70	1.50	2.215	110.34	110.61	113.52
2.70	2.50	2.215	104.06	107.78	109.34
2.70	3.00	2.215	100.34	106.43	107.41
2.70	3.50	2.215	98.19	105.61	106.35
2.70	4.00	2.215	97.56	105.19	105.91
